LAMMPS data file via write_data, version 29 Aug 2024, timestep = 31, units = metal

288 atoms
1 atom types

0 11.317147 xlo xhi
0 27.963582 ylo yhi
0 11.317147 zlo zhi

Masses

1 55.8

Atoms # atomic

1 1 0 0 0 0 0 0
2 1 1.414643375 1.414643557616 1.414643375 0 0 0
3 1 0 0 2.82928675 0 0 0
4 1 1.414643375 1.414643557616 4.243930125 0 0 0
9 1 0 2.82928660596 0 0 0 0
10 1 1.4146433751545249 4.4260030263649766 1.4146433751668088 0 0 0
11 1 0 2.82928660596 2.82928675 0 0 0
12 1 1.4146433748664113 4.426003026526175 4.243930124798004 0 0 0
73 1 2.82928675 0 0 0 0 0
74 1 4.243930125 1.414643557616 1.414643375 0 0 0
75 1 2.82928675 0 2.82928675 0 0 0
76 1 4.243930125 1.414643557616 4.243930125 0 0 0
81 1 2.82928675 2.82928660596 0 0 0 0
82 1 4.243930124853291 4.426003026285603 1.4146433750564236 0 0 0
83 1 2.82928675 2.82928660596 2.82928675 0 0 0
84 1 4.2439301251392 4.426003026451817 4.243930124916496 0 0 0
145 1 5.6585735 0 0 0 0 0
146 1 7.073216875 1.414643557616 1.414643375 0 0 0
147 1 5.6585735 0 2.82928675 0 0 0
148 1 7.073216875 1.414643557616 4.243930125 0 0 0
153 1 5.6585735 2.82928660596 0 0 0 0
154 1 7.073216875190614 4.426003026316282 1.4146433751965612 0 0 0
155 1 5.6585735 2.82928660596 2.82928675 0 0 0
156 1 7.073216874910152 4.4260030264813945 4.243930124769761 0 0 0
217 1 8.48786025 0 0 0 0 0
218 1 9.902503625 1.414643557616 1.414643375 0 0 0
219 1 8.48786025 0 2.82928675 0 0 0
220 1 9.902503625 1.414643557616 4.243930125 0 0 0
225 1 8.48786025 2.82928660596 0 0 0 0
226 1 9.90250362480158 4.426003026253528 1.41464337506694 0 0 0
227 1 8.48786025 2.82928660596 2.82928675 0 0 0
228 1 9.902503625084247 4.4260030264196475 4.243930124898651 0 0 0
17 1 1.254996107036277e-10 6.006420578750911 11.317146999288946 0 0 -1
18 1 1.4146433753857004 7.585966872477459 1.4146433750180136 0 0 0
19 1 3.3232971929919586e-10 6.006420578607141 2.829286750658265 0 0 0
20 1 1.4146433743138278 7.5859668719567654 4.2439301248511505 0 0 0
25 1 11.317146999605571 9.160001392664755 11.317146999632023 -1 0 -1
27 1 1.5196732761069143e-10 9.160001392982618 2.8292867502336074 0 0 0
89 1 2.8292867499527286 6.006420578674 11.31714699991009 0 0 -1
90 1 4.243930124645642 7.585966872716659 1.4146433746269471 0 0 0
91 1 2.829286749724165 6.006420578522045 2.8292867500445795 0 0 0
92 1 4.243930125713943 7.585966872202874 4.24393012526922 0 0 0
97 1 2.8292867505915904 9.160001392712584 1.3309300328501195e-09 0 0 0
99 1 2.8292867499901098 9.160001393024304 2.8292867485486344 0 0 0
161 1 5.6585734999138335 6.006420578760032 11.317146999262974 0 0 -1
162 1 7.073216875528466 7.585966872389247 1.4146433751344616 0 0 0
163 1 5.658573500210037 6.006420578626316 2.8292867506548185 0 0 0
164 1 7.073216874478151 7.58596687187358 4.243930124738142 0 0 0
169 1 5.658573499067813 9.160001392681759 11.317146999571225 0 0 -1
171 1 5.658573499838576 9.160001393011195 2.8292867502319208 0 0 0
233 1 8.48786025000791 6.006420578743906 11.317146999827118 0 0 -1
234 1 9.902503624440234 7.585966872659811 1.4146433746636449 0 0 0
235 1 8.487860249733446 6.006420578602118 2.829286750056173 0 0 0
236 1 9.902503625494132 7.585966872144405 4.2439301252091335 0 0 0
241 1 8.487860250734993 9.160001392817508 1.1316849679587904e-09 0 0 0
243 1 8.487860250019303 9.160001393138842 2.8292867485747553 0 0 0
26 1 1.414643376032183 10.7303690449692 1.4146433757516208 0 0 0
28 1 1.414643373838685 10.73036904579123 4.243930124004921 0 0 0
33 1 3.2886937617604417e-10 12.299786878631064 11.317146997696272 0 0 -1
34 1 1.4146433759939423 13.871145191142793 1.414643375242461 0 0 0
35 1 9.884040252927662e-10 12.299786878384015 2.8292867520960807 0 0 0
36 1 1.4146433736338373 13.87114519058019 4.243930124515307 0 0 0
98 1 4.243930124036926 10.730369044577824 1.4146433750127294 0 0 0
100 1 4.243930126225489 10.73036904539597 4.243930124780748 0 0 0
105 1 2.829286749944516 12.299786878542657 1.6477486042276723e-10 0 0 0
106 1 4.243930124098688 13.871145191448617 1.4146433746285028 0 0 0
107 1 2.8292867491976805 12.29978687831505 2.8292867496893455 0 0 0
108 1 4.243930126444928 13.8711451908727 4.243930125148517 0 0 0
170 1 7.073216876304768 10.730369044904357 1.414643375969218 0 0 0
172 1 7.073216874144721 10.730369045724686 4.243930123788188 0 0 0
177 1 5.658573499582393 12.299786878643289 11.317146997629463 0 0 -1
178 1 7.073216876247015 13.871145191182222 1.41464337545207 0 0 0
179 1 5.658573500547851 12.29978687838803 2.829286752090813 0 0 0
180 1 7.07321687393768 13.871145190615524 4.243930124297248 0 0 0
242 1 9.902503623626176 10.730369044537426 1.4146433750852334 0 0 0
244 1 9.902503625791164 10.730369045355921 4.243930124668136 0 0 0
249 1 8.487860250144179 12.299786878561509 11.317146999879773 0 0 -1
250 1 9.902503623660413 13.871145191475168 1.4146433747266431 0 0 0
251 1 8.48786024926601 12.299786878324996 2.8292867497204197 0 0 0
252 1 9.902503625983622 13.871145190910687 4.243930125009208 0 0 0
41 1 11.317146999885157 15.442423445160255 11.31714699886977 -1 0 -1
42 1 1.4146433759048411 17.008266876009856 1.4146433752123968 0 0 0
43 1 1.9536905426775775e-10 15.442423445228366 2.8292867509168986 0 0 0
44 1 1.4146433741054252 17.008266876123887 4.243930124643585 0 0 0
113 1 2.829286750340664 15.44242344523872 1.1820789099240493e-09 0 0 0
114 1 4.2439301241792915 17.00826687588594 1.4146433749888927 0 0 0
115 1 2.829286749919767 15.442423445334747 2.829286748764362 0 0 0
116 1 4.243930125956283 17.008266875995847 4.243930124867176 0 0 0
185 1 5.658573499269762 15.44242344515624 11.317146998842123 0 0 -1
186 1 7.073216876011728 17.008266876115307 1.4146433753457708 0 0 0
187 1 5.6585734998659305 15.442423445204087 2.8292867508953696 0 0 0
188 1 7.073216874282754 17.008266876228618 4.243930124493227 0 0 0
257 1 8.48786025050437 15.442423445147233 8.732534695354843e-10 0 0 0
258 1 9.902503623904211 17.008266875954476 1.4146433751042615 0 0 0
259 1 8.487860250018873 15.442423445233455 2.829286748809342 0 0 0
260 1 9.902503625655601 17.00826687607106 4.2439301247228265 0 0 0
49 1 1.8781776134346728e-10 18.56996533474578 11.317146999138506 0 0 -1
50 1 1.4146433753361174 20.13528706014664 1.4146433750033194 0 0 0
51 1 1.6291377805864737e-10 18.56996533468593 2.8292867507234076 0 0 0
52 1 1.4146433746631226 20.13528706012126 4.243930124957658 0 0 0
57 1 2.7699811248861856e-11 21.702502979084986 11.31714699984269 0 0 -1
59 1 11.317146999991273 21.70250297907851 2.829286750127601 -1 0 0
121 1 2.8292867499242327 18.5699653347668 5.951594772568569e-10 0 0 0
122 1 4.243930124698769 20.135287060194923 1.4146433749993268 0 0 0
123 1 2.829286749851229 18.56996533469611 2.829286749441252 0 0 0
124 1 4.243930125360319 20.135287060175834 4.243930124958691 0 0 0
129 1 2.829286749992331 21.702502979111042 1.1732126381502894e-10 0 0 0
131 1 2.829286749998651 21.70250297908895 2.829286749904055 0 0 0
193 1 5.658573499887277 18.569965334720795 11.317146999143805 0 0 -1
194 1 7.073216875336541 20.13528706022465 1.4146433750540657 0 0 0
195 1 5.65857350005373 18.56996533465665 2.8292867507001387 0 0 0
196 1 7.0732168747027035 20.135287060197104 4.243930124895206 0 0 0
201 1 5.658573499976083 21.702502979069873 11.317146999843352 0 0 -1
203 1 5.658573499991847 21.702502979069695 2.8292867501246928 0 0 0
265 1 8.487860250000624 18.569965334646298 3.6141045711701736e-10 0 0 0
266 1 9.902503624628627 20.135287060246732 1.4146433750677987 0 0 0
267 1 8.487860249932064 18.56996533457266 2.8292867494894165 0 0 0
268 1 9.902503625273903 20.13528706021572 4.2439301248788714 0 0 0
273 1 8.487860250003862 21.70250297906822 5.6706639384174196e-11 0 0 0
275 1 8.487860250018201 21.702502979045114 2.82928674991372 0 0 0
58 1 1.4146433750216563 23.355549407641192 1.4146433749982563 0 0 0
60 1 1.4146433749816711 23.35554940763634 4.243930124999317 0 0 0
65 1 0 25.13429539404 0 0 0 0
66 1 1.414643375 26.548937423841 1.414643375 0 0 0
67 1 0 25.13429539404 2.82928675 0 0 0
68 1 1.414643375 26.548937423841 4.243930125 0 0 0
130 1 4.2439301249807775 23.35554940764374 1.4146433749999985 0 0 0
132 1 4.2439301250204515 23.355549407640577 4.243930124997287 0 0 0
137 1 2.82928675 25.13429539404 0 0 0 0
138 1 4.243930125 26.548937423841 1.414643375 0 0 0
139 1 2.82928675 25.13429539404 2.82928675 0 0 0
140 1 4.243930125 26.548937423841 4.243930125 0 0 0
202 1 7.073216875019585 23.35554940765396 1.4146433750041445 0 0 0
204 1 7.073216874981839 23.355549407648567 4.243930124991989 0 0 0
209 1 5.6585735 25.13429539404 0 0 0 0
210 1 7.073216875 26.548937423841 1.414643375 0 0 0
211 1 5.6585735 25.13429539404 2.82928675 0 0 0
212 1 7.073216875 26.548937423841 4.243930125 0 0 0
274 1 9.902503624977976 23.355549407652397 1.414643375006614 0 0 0
276 1 9.902503625016044 23.35554940764597 4.243930124989602 0 0 0
281 1 8.48786025 25.13429539404 0 0 0 0
282 1 9.902503625 26.548937423841 1.414643375 0 0 0
283 1 8.48786025 25.13429539404 2.82928675 0 0 0
284 1 9.902503625 26.548937423841 4.243930125 0 0 0
5 1 0 0 5.6585735 0 0 0
6 1 1.414643375 1.414643557616 7.073216875 0 0 0
7 1 0 0 8.48786025 0 0 0
8 1 1.414643375 1.414643557616 9.902503625 0 0 0
13 1 0 2.82928660596 5.6585735 0 0 0
14 1 1.414643375135129 4.426003026428749 7.073216875144637 0 0 0
15 1 0 2.82928660596 8.48786025 0 0 0
16 1 1.4146433748598248 4.426003026553851 9.902503624890553 0 0 0
77 1 2.82928675 0 5.6585735 0 0 0
78 1 4.243930125 1.414643557616 7.073216875 0 0 0
79 1 2.82928675 0 8.48786025 0 0 0
80 1 4.243930125 1.414643557616 9.902503625 0 0 0
85 1 2.82928675 2.82928660596 5.6585735 0 0 0
86 1 4.2439301248787125 4.42600302635597 7.073216875020171 0 0 0
87 1 2.82928675 2.82928660596 8.48786025 0 0 0
88 1 4.243930125160709 4.426003026480092 9.902503625006899 0 0 0
149 1 5.6585735 0 5.6585735 0 0 0
150 1 7.073216875 1.414643557616 7.073216875 0 0 0
151 1 5.6585735 0 8.48786025 0 0 0
152 1 7.073216875 1.414643557616 9.902503625 0 0 0
157 1 5.6585735 2.82928660596 5.6585735 0 0 0
158 1 7.073216875206076 4.42600302638004 7.073216875124405 0 0 0
159 1 5.6585735 2.82928660596 8.48786025 0 0 0
160 1 7.07321687492369 4.426003026509075 9.902503624909265 0 0 0
221 1 8.48786025 0 5.6585735 0 0 0
222 1 9.902503625 1.414643557616 7.073216875 0 0 0
223 1 8.48786025 0 8.48786025 0 0 0
224 1 9.902503625 1.414643557616 9.902503625 0 0 0
229 1 8.48786025 2.82928660596 5.6585735 0 0 0
230 1 9.90250362478009 4.426003026323894 7.073216875010528 0 0 0
231 1 8.48786025 2.82928660596 8.48786025 0 0 0
232 1 9.902503625055788 4.4260030264479235 9.902503625023892 0 0 0
21 1 1.2306600183364935e-10 6.006420578719961 5.658573499517129 0 0 0
22 1 1.414643375312367 7.5859668725945335 7.07321687492316 0 0 0
23 1 3.994617969738101e-10 6.006420578515096 8.487860250535649 0 0 0
24 1 1.4146433743066924 7.585966872006845 9.902503625207727 0 0 0
29 1 11.317146999599911 9.160001392617314 5.658573500211195 -1 0 0
31 1 3.1674396439029806e-10 9.16000139285243 8.487860249923079 0 0 0
93 1 2.829286749969878 6.006420578630771 5.658573500088039 0 0 0
94 1 4.243930124737774 7.5859668728411975 7.073216874488741 0 0 0
95 1 2.8292867497137113 6.0064205784339615 8.487860249957283 0 0 0
96 1 4.24393012576667 7.58596687225323 9.902503625615129 0 0 0
101 1 2.8292867506304216 9.160001392653214 5.658573501786525 0 0 0
103 1 2.8292867499691563 9.160001392896431 8.48786024833384 0 0 0
165 1 5.658573499899398 6.006420578729115 5.658573499532551 0 0 0
166 1 7.073216875573264 7.585966872506316 7.073216874877029 0 0 0
167 1 5.658573500122415 6.006420578534286 8.487860250549646 0 0 0
168 1 7.073216874542369 7.585966871923635 9.902503625250423 0 0 0
173 1 5.658573499032072 9.16000139263432 5.6585735002390924 0 0 0
175 1 5.658573499627009 9.160001392881007 8.487860249957663 0 0 0
237 1 8.487860250007635 6.006420578700678 5.658573500159817 0 0 0
238 1 9.902503624376637 7.5859668727843514 7.073216874454085 0 0 0
239 1 8.487860249764385 6.006420578514037 8.487860249956872 0 0 0
240 1 9.9025036253843 7.585966872194768 9.902503625673198 0 0 0
245 1 8.487860250737533 9.160001392758137 5.658573501963602 0 0 0
247 1 8.487860250087042 9.160001393010957 8.487860248329843 0 0 0
30 1 1.4146433758880073 10.730369045056651 7.073216875563213 0 0 0
32 1 1.4146433738194337 10.730369045826311 9.902503624680394 0 0 0
37 1 3.395512084741052e-10 12.299786878618368 5.65857349852244 0 0 0
38 1 1.4146433758201282 13.871145191078405 7.073216875056082 0 0 0
39 1 1.2515233294152495e-09 12.299786878384767 8.48786025168501 0 0 0
40 1 1.4146433735293633 13.871145190550978 9.902503625186384 0 0 0
102 1 4.24393012421222 10.730369044659355 7.073216874754007 0 0 0
104 1 4.243930126316837 10.730369045430862 9.902503625452654 0 0 0
109 1 2.8292867499765735 12.299786878548156 5.65857350076803 0 0 0
110 1 4.24393012430326 13.871145191376073 7.073216874383759 0 0 0
111 1 2.829286749159156 12.299786878295816 8.487860249377661 0 0 0
112 1 4.243930126612858 13.871145190846423 9.902503625839481 0 0 0
174 1 7.073216876390198 10.730369044991784 7.0732168754872475 0 0 0
176 1 7.073216874274831 10.730369045759778 9.902503624755523 0 0 0
181 1 5.658573499547101 12.299786878630593 5.658573498560225 0 0 0
182 1 7.073216876360319 13.87114519111782 7.073216874934023 0 0 0
183 1 5.658573500257207 12.299786878388804 8.48786025171927 0 0 0
184 1 7.07321687403795 13.871145190586306 9.902503625316928 0 0 0
246 1 9.902503623509638 10.730369044618952 7.073216874677138 0 0 0
248 1 9.902503625588949 10.730369045390821 9.902503625569665 0 0 0
253 1 8.487860250136718 12.29978687856702 5.658573501036804 0 0 0
254 1 9.902503623516342 13.871145191402611 7.0732168742771115 0 0 0
255 1 8.487860249332075 12.299786878305774 8.487860249362766 0 0 0
256 1 9.90250362581989 13.871145190884418 9.902503625987297 0 0 0
45 1 11.317146999915405 15.442423445198132 5.658573499593666 -1 0 0
46 1 1.4146433757234649 17.008266875857572 7.073216875112909 0 0 0
47 1 4.785825069575367e-10 15.44242344537018 8.487860250619411 0 0 0
48 1 1.414643373894743 17.00826687606051 9.902503625031338 0 0 0
117 1 2.82928675034667 15.442423445304112 5.658573501566016 0 0 0
118 1 4.24393012438155 17.008266875735355 7.073216874871677 0 0 0
119 1 2.8292867498874785 15.44242344543778 8.487860248487305 0 0 0
120 1 4.243930126199855 17.00826687593503 9.902503625272495 0 0 0
189 1 5.658573499250059 15.442423445194112 5.658573499641756 0 0 0
190 1 7.073216876093712 17.008266875963024 7.0732168749751665 0 0 0
191 1 5.658573499571592 15.4424234453459 8.487860250620477 0 0 0
192 1 7.073216874277424 17.008266876165226 9.902503625186087 0 0 0
261 1 8.48786025048781 15.442423445212613 5.658573501834769 0 0 0
262 1 9.90250362380135 17.00826687580389 7.073216874781653 0 0 0
263 1 8.487860250062306 15.442423445336503 8.487860248482367 0 0 0
264 1 9.90250362562805 17.008266876010225 9.902503625391498 0 0 0
53 1 2.1177903875013726e-10 18.56996533480632 5.658573499527511 0 0 0
54 1 1.4146433752375334 20.135287060052285 7.073216874988682 0 0 0
55 1 3.53216123016864e-10 18.569965334818843 8.48786025061039 0 0 0
56 1 1.4146433745384934 20.13528706008321 9.902503625050459 0 0 0
61 1 3.347315302195866e-11 21.702502979108505 5.658573499916845 0 0 0
63 1 4.49180719100284e-11 21.70250297911053 8.487860250112817 0 0 0
125 1 2.829286749920321 18.56996533482226 5.658573500664495 0 0 0
126 1 4.243930124805287 20.135287060098975 7.073216874987672 0 0 0
127 1 2.8292867498485688 18.569965334844248 8.487860249298917 0 0 0
128 1 4.243930125492542 20.13528706013337 9.902503625054429 0 0 0
133 1 2.829286749991149 21.702502979124336 5.658573500098606 0 0 0
135 1 2.829286749998326 21.702502979149287 8.487860249879972 0 0 0
197 1 5.658573499874866 18.569965334781344 5.65857349956498 0 0 0
198 1 7.07321687536919 20.135287060130313 7.07321687491571 0 0 0
199 1 5.65857349983654 18.569965334789547 8.487860250590872 0 0 0
200 1 7.073216874686667 20.135287060159058 9.902503625135122 0 0 0
205 1 5.658573499971698 21.702502979093406 5.658573499922946 0 0 0
207 1 5.658573499933441 21.702502979101727 8.48786025010896 0 0 0
269 1 8.487860249992966 18.569965334701724 5.658573500838249 0 0 0
270 1 9.90250362458805 20.135287060150795 7.073216874947566 0 0 0
271 1 8.487860249961608 18.569965334720813 8.487860249310728 0 0 0
272 1 9.902503625282364 20.135287060173237 9.902503625105862 0 0 0
277 1 8.487860250003658 21.702502979081526 5.658573500150052 0 0 0
279 1 8.487860250023296 21.702502979105457 8.487860249879478 0 0 0
62 1 1.4146433750134897 23.35554940762704 7.073216874999373 0 0 0
64 1 1.4146433749734664 23.355549407630726 9.90250362500308 0 0 0
69 1 0 25.13429539404 5.6585735 0 0 0
70 1 1.414643375 26.548937423841 7.073216875 0 0 0
71 1 0 25.13429539404 8.48786025 0 0 0
72 1 1.414643375 26.548937423841 9.902503625 0 0 0
134 1 4.243930124989689 23.355549407628995 7.073216875001209 0 0 0
136 1 4.243930125029028 23.355549407633724 9.90250362500152 0 0 0
141 1 2.82928675 25.13429539404 5.6585735 0 0 0
142 1 4.243930125 26.548937423841 7.073216875 0 0 0
143 1 2.82928675 25.13429539404 8.48786025 0 0 0
144 1 4.243930125 26.548937423841 9.902503625 0 0 0
206 1 7.073216875025667 23.355549407639806 7.073216874992421 0 0 0
208 1 7.073216874985755 23.35554940764295 9.902503625011457 0 0 0
213 1 5.6585735 25.13429539404 5.6585735 0 0 0
214 1 7.073216875 26.548937423841 7.073216875 0 0 0
215 1 5.6585735 25.13429539404 8.48786025 0 0 0
216 1 7.073216875 26.548937423841 9.902503625 0 0 0
278 1 9.902503624971162 23.355549407637646 7.073216874995715 0 0 0
280 1 9.902503625011773 23.355549407639103 9.902503625008084 0 0 0
285 1 8.48786025 25.13429539404 5.6585735 0 0 0
286 1 9.902503625 26.548937423841 7.073216875 0 0 0
287 1 8.48786025 25.13429539404 8.48786025 0 0 0
288 1 9.902503625 26.548937423841 9.902503625 0 0 0

Velocities

1 0 0 0
2 0 0 0
3 0 0 0
4 0 0 0
9 0 0 0
10 0 0 0
11 0 0 0
12 0 0 0
73 0 0 0
74 0 0 0
75 0 0 0
76 0 0 0
81 0 0 0
82 0 0 0
83 0 0 0
84 0 0 0
145 0 0 0
146 0 0 0
147 0 0 0
148 0 0 0
153 0 0 0
154 0 0 0
155 0 0 0
156 0 0 0
217 0 0 0
218 0 0 0
219 0 0 0
220 0 0 0
225 0 0 0
226 0 0 0
227 0 0 0
228 0 0 0
17 0 0 0
18 0 0 0
19 0 0 0
20 0 0 0
25 0 0 0
27 0 0 0
89 0 0 0
90 0 0 0
91 0 0 0
92 0 0 0
97 0 0 0
99 0 0 0
161 0 0 0
162 0 0 0
163 0 0 0
164 0 0 0
169 0 0 0
171 0 0 0
233 0 0 0
234 0 0 0
235 0 0 0
236 0 0 0
241 0 0 0
243 0 0 0
26 0 0 0
28 0 0 0
33 0 0 0
34 0 0 0
35 0 0 0
36 0 0 0
98 0 0 0
100 0 0 0
105 0 0 0
106 0 0 0
107 0 0 0
108 0 0 0
170 0 0 0
172 0 0 0
177 0 0 0
178 0 0 0
179 0 0 0
180 0 0 0
242 0 0 0
244 0 0 0
249 0 0 0
250 0 0 0
251 0 0 0
252 0 0 0
41 0 0 0
42 0 0 0
43 0 0 0
44 0 0 0
113 0 0 0
114 0 0 0
115 0 0 0
116 0 0 0
185 0 0 0
186 0 0 0
187 0 0 0
188 0 0 0
257 0 0 0
258 0 0 0
259 0 0 0
260 0 0 0
49 0 0 0
50 0 0 0
51 0 0 0
52 0 0 0
57 0 0 0
59 0 0 0
121 0 0 0
122 0 0 0
123 0 0 0
124 0 0 0
129 0 0 0
131 0 0 0
193 0 0 0
194 0 0 0
195 0 0 0
196 0 0 0
201 0 0 0
203 0 0 0
265 0 0 0
266 0 0 0
267 0 0 0
268 0 0 0
273 0 0 0
275 0 0 0
58 0 0 0
60 0 0 0
65 0 0 0
66 0 0 0
67 0 0 0
68 0 0 0
130 0 0 0
132 0 0 0
137 0 0 0
138 0 0 0
139 0 0 0
140 0 0 0
202 0 0 0
204 0 0 0
209 0 0 0
210 0 0 0
211 0 0 0
212 0 0 0
274 0 0 0
276 0 0 0
281 0 0 0
282 0 0 0
283 0 0 0
284 0 0 0
5 0 0 0
6 0 0 0
7 0 0 0
8 0 0 0
13 0 0 0
14 0 0 0
15 0 0 0
16 0 0 0
77 0 0 0
78 0 0 0
79 0 0 0
80 0 0 0
85 0 0 0
86 0 0 0
87 0 0 0
88 0 0 0
149 0 0 0
150 0 0 0
151 0 0 0
152 0 0 0
157 0 0 0
158 0 0 0
159 0 0 0
160 0 0 0
221 0 0 0
222 0 0 0
223 0 0 0
224 0 0 0
229 0 0 0
230 0 0 0
231 0 0 0
232 0 0 0
21 0 0 0
22 0 0 0
23 0 0 0
24 0 0 0
29 0 0 0
31 0 0 0
93 0 0 0
94 0 0 0
95 0 0 0
96 0 0 0
101 0 0 0
103 0 0 0
165 0 0 0
166 0 0 0
167 0 0 0
168 0 0 0
173 0 0 0
175 0 0 0
237 0 0 0
238 0 0 0
239 0 0 0
240 0 0 0
245 0 0 0
247 0 0 0
30 0 0 0
32 0 0 0
37 0 0 0
38 0 0 0
39 0 0 0
40 0 0 0
102 0 0 0
104 0 0 0
109 0 0 0
110 0 0 0
111 0 0 0
112 0 0 0
174 0 0 0
176 0 0 0
181 0 0 0
182 0 0 0
183 0 0 0
184 0 0 0
246 0 0 0
248 0 0 0
253 0 0 0
254 0 0 0
255 0 0 0
256 0 0 0
45 0 0 0
46 0 0 0
47 0 0 0
48 0 0 0
117 0 0 0
118 0 0 0
119 0 0 0
120 0 0 0
189 0 0 0
190 0 0 0
191 0 0 0
192 0 0 0
261 0 0 0
262 0 0 0
263 0 0 0
264 0 0 0
53 0 0 0
54 0 0 0
55 0 0 0
56 0 0 0
61 0 0 0
63 0 0 0
125 0 0 0
126 0 0 0
127 0 0 0
128 0 0 0
133 0 0 0
135 0 0 0
197 0 0 0
198 0 0 0
199 0 0 0
200 0 0 0
205 0 0 0
207 0 0 0
269 0 0 0
270 0 0 0
271 0 0 0
272 0 0 0
277 0 0 0
279 0 0 0
62 0 0 0
64 0 0 0
69 0 0 0
70 0 0 0
71 0 0 0
72 0 0 0
134 0 0 0
136 0 0 0
141 0 0 0
142 0 0 0
143 0 0 0
144 0 0 0
206 0 0 0
208 0 0 0
213 0 0 0
214 0 0 0
215 0 0 0
216 0 0 0
278 0 0 0
280 0 0 0
285 0 0 0
286 0 0 0
287 0 0 0
288 0 0 0
