LAMMPS data file via write_data, version 29 Aug 2024, timestep = 33, units = metal

256 atoms
2 atom types

0 14.06520962 xlo xhi
0 30.06401269 ylo yhi
0 8.12055266 zlo zhi

Masses

1 55.8
2 1

Atoms # atomic

14 1 1.057837382915 0.882609793183 6.031986631378 0 0 0
20 1 2.25573232562 1.447644730203 4.014404140079 0 0 0
119 1 2.244360603642 3.952166145731 8.064109215832 0 0 0
162 1 4.60370373332 3.201606388904 8.068442342731 0 0 0
164 1 3.418738515862 2.324412972245 1.977215467643 0 0 0
165 1 1.074861068727 3.19086264902 1.957023713454 0 0 0
171 1 4.591949718945 0.910111628979 4.018430797321 0 0 0
207 1 4.594340382624 3.209464162834 4.011853880516 0 0 0
209 1 3.426008119455 2.326209894442 6.036804230449 0 0 0
210 1 1.081883405934 3.179405063333 6.024229960683 0 0 0
211 1 2.253355164542 3.953160954879 4.005300432108 0 0 0
227 1 4.593113052432 0.910667836943 8.072870642508 0 0 0
230 1 1.069909552332 0.885056909312 1.980914216969 0 0 0
231 1 2.245764874171 1.436182171713 8.062433620996 0 0 0
16 1 8.109115727815 3.202888874678 6.027256896687 0 0 0
21 1 9.274888966746 3.965174251251 4.007438898446 0 0 0
25 1 6.930309524998 2.323694650918 4.010853915662 0 0 0
124 1 8.122515793672 3.208139656878 1.966794037592 0 0 0
125 1 9.297242101135 3.958866499871 8.056910427104 0 0 0
159 1 8.11083379317 0.898923817829 6.045176357831 0 0 0
160 1 9.274785306151 1.454175263136 4.000623562215 0 0 0
163 1 5.759295448311 3.956795327614 1.977751830146 0 0 0
168 1 8.0965370702 0.910650183494 1.979660403638 0 0 0
169 1 9.278640861412 1.456335448559 8.081283859885 0 0 0
172 1 5.742404960035 1.435417106043 6.045955118831 0 0 0
206 1 6.93382892175 2.31972088441 8.074350450819 0 0 0
208 1 5.771856665066 3.95392726375 6.049292584768 0 0 0
228 1 5.752460178392 1.422503732412 1.988217192387 0 0 0
1 1 11.630877262625 3.217544718318 3.977814716315 0 0 0
7 1 12.794040842563 3.956175965058 6.021759444947 0 0 0
11 1 10.452361787691 2.343884726503 6.028276756895 0 0 0
33 1 11.607959972679 0.912363562609 4.014394639032 0 0 0
36 1 12.802098379198 1.473576403598 6.01991250645 0 0 0
120 1 13.966959911241 2.329760724094 8.068561877266 0 0 0
121 1 11.629189718775 3.20945521179 8.058433193139 0 0 0
122 1 12.801934519506 3.956410929978 1.96886697107 0 0 0
123 1 10.462057921247 2.332371196787 1.958851649858 0 0 0
166 1 12.796014894733 1.441792984817 1.969021342776 0 0 0
213 1 13.964454616104 2.329442216092 3.985067750334 0 0 0
233 1 11.607715519335 0.915017298683 8.049571315227 0 0 0
12 1 3.419810932368731 4.796270200114882 1.9744187253118761 0 0 0
19 1 1.0781357866581889 5.592459015363273 1.968506996611495 0 0 0
28 1 2.2504781412341632 6.393414589326894 8.064188773442591 0 0 0
31 1 4.593608133612753 5.598068041687814 8.068199787510103 0 0 0
72 1 4.59046393297158 5.603331768080638 4.0049596048987475 0 0 0
74 1 3.421093762173646 4.788736073697816 6.037834377787328 0 0 0
75 1 1.073756564314626 5.597369426207296 6.029260017135246 0 0 0
76 1 2.24852435971676 6.392076756210868 4.001781793967548 0 0 0
106 1 4.5937541502181345 8.033107837039175 4.005828134950211 0 0 0
108 1 3.4234797274659647 7.2006178889512675 6.039577404202713 0 0 0
109 1 1.0847322605768988 8.0313555291363 6.0188163730641095 0 0 0
201 1 4.592549313140118 8.029326253046985 8.07601979205112 0 0 0
203 1 3.4273334985780446 7.226309207991768 1.9769475110781662 0 0 0
204 1 1.087052994845895 8.014672983811783 1.9586958275377329 0 0 0
5 1 5.762282928628057 6.4094553917901855 1.9763498882322261 0 0 0
69 1 8.105119533447677 5.604434342941333 1.9726151022429106 0 0 0
70 1 9.270923993101938 6.401758199969338 8.060541751767575 0 0 0
71 1 6.941339721865102 4.797759607578414 8.068041573913248 0 0 0
73 1 5.763038767583383 6.395571080915617 6.0355636555769046 0 0 0
81 1 8.108399540259946 5.594051226488821 6.0298089711996115 0 0 0
130 1 8.096622478560382 8.041543977995497 1.9835510467906154 0 0 0
132 1 6.9256049295266555 7.220951180738756 8.072163252355745 0 0 0
188 1 8.12952246273027 7.993492597958663 6.009485438148576 0 0 0
190 1 6.932756521532399 7.21674945090558 4.000237465888766 0 0 0
199 1 9.276190583668724 6.407846635129396 3.9967338318382186 0 0 0
200 1 6.933081873823425 4.795689680064122 4.002564676934115 0 0 0
32 1 13.968657195076522 4.803432563457691 8.054411504937919 0 0 0
35 1 11.625423990984466 5.606460740596332 8.052475125293812 0 0 0
38 1 12.798762220203214 6.393939444271545 1.966065857726927 0 0 0
68 1 10.453707280617415 4.803718347004243 1.9683362729246556 0 0 0
77 1 13.971692248334907 4.79873396959331 3.9991946960716924 0 0 0
78 1 11.627115379333054 5.610185354738651 3.9967316948000873 0 0 0
79 1 12.79929965873922 6.425001927662848 6.02488465954537 0 0 0
80 1 10.456238814068797 4.799451550104594 6.024075315446776 0 0 0
111 1 13.972315538591754 7.227184440172252 3.997386842995744 0 0 0
112 1 11.627561089457963 8.042207457257426 4.002616801153842 0 0 0
126 1 13.980393382530012 7.242136650298954 8.048274451428165 0 0 0
127 1 11.605737975845727 8.007459741061854 8.035196817433992 0 0 0
129 1 10.443421018548564 7.218867079130042 1.9768422578134583 0 0 0
187 1 10.448191773900188 7.210348530671342 6.019477898606058 0 0 0
51 1 4.665939118707929 10.621456152703134 3.9784468205527452 0 0 0
53 1 3.4556987795434164 9.614465004651425 6.08349164726695 0 0 0
54 1 1.1701606195548688 10.532850712435915 5.908934377058956 0 0 0
64 1 3.54001312473511 12.016248999482844 6.0006824720450105 0 0 0
110 1 2.2365579780762803 8.79931524874512 3.966267928124427 0 0 0
152 1 3.4363044697273692 9.683856442975584 1.9709151143283288 0 0 0
153 1 1.1187229531014977 10.510298453487009 1.951715654847663 0 0 0
154 1 2.2639567830917118 11.245589090127586 8.025332699685052 0 0 0
177 1 2.221910374917053 11.40011518243272 3.892151234190802 0 0 0
191 1 4.599073781240542 10.568406915812186 8.072305280952628 0 0 0
195 1 3.4035017548711797 12.074870384559828 1.8420930649559555 0 0 0
205 1 2.2781368160034163 8.815522924462151 8.067449256934704 0 0 0
243 2 3.7263121376795056 12.169690566859352 7.930735976540597 0 0 0
251 2 1.0151609961478085 12.118332825271457 5.028738599486616 0 0 0
252 2 3.154779080264315 10.10841390913153 4.5150473741155395 0 0 0
3 1 6.953397185720567 9.64693569925738 4.007061379217186 0 0 0
40 1 7.000848039363001 12.055722111435662 0.035682192195041186 0 0 1
48 1 8.109773155853969 10.576803159227984 2.0065736125734945 0 0 0
49 1 9.3268751523702 11.309374608616846 0.018335281897614745 0 0 1
50 1 6.915595888372987 9.692988683581422 0.003656790373997356 0 0 1
52 1 5.832654130971604 11.286249833264247 6.073824049837908 0 0 0
98 1 6.922319592226258 12.004211477112399 3.9912966284586675 0 0 0
107 1 5.723323744864015 8.818174883503008 6.033249582831565 0 0 0
131 1 9.19393064436398 8.829432080368857 8.054907527402367 0 0 0
184 1 8.19389346402316 10.681517445991128 6.031800851285663 0 0 0
185 1 9.304829268769884 11.32212559364252 4.00751482612364 0 0 0
189 1 9.290620345202301 8.852947704594031 4.002702236234462 0 0 0
192 1 5.775821287898398 11.282128043045418 1.966321761568168 0 0 0
202 1 5.753362502757379 8.849784227903225 1.9852163276836008 0 0 0
242 2 8.275078931498143 12.212790262802507 5.1634690208405 0 0 0
247 2 7.2476781617231945 9.360714634248893 6.491984932270146 0 0 0
254 2 5.17823362329281 12.183091186769692 4.729308458887348 0 0 0
256 2 7.2604382321252166 12.178312180400669 2.0908416524108584 0 0 0
34 1 10.5646477192145 12.051217528762972 2.021234978604542 0 0 0
66 1 13.96639941677712 12.1505388237559 3.690386832471688 0 0 0
96 1 10.511440835510294 12.036118861838538 6.079311638891438 0 0 0
128 1 12.826243312590387 8.793524920012851 2.0062765513513448 0 0 0
155 1 0.03949361222380965 9.767568518722136 7.998557319024301 1 0 0
156 1 11.731259102411686 10.759038266598052 7.965397564188143 0 0 0
157 1 12.778169003175147 11.160776864998375 1.9779377869084755 0 0 0
158 1 10.441159517922275 9.667905687729826 2.029553231129058 0 0 0
179 1 13.991646520673461 9.676270677255506 3.979372848114557 0 0 0
181 1 11.66593718578735 10.602393675796685 4.062272962992275 0 0 0
182 1 13.142224866274507 11.669779574261204 6.039639734719673 0 0 0
183 1 10.415462198599599 9.635424819345843 6.02287180329907 0 0 0
186 1 12.827686723901325 8.897201177350277 6.005281776680791 0 0 0
197 1 0.08309932201222026 12.423541242428188 0.5146601546958263 1 0 1
244 2 12.054049324965659 12.16607556945934 3.24907170699012 0 0 0
245 2 0.49345468436618267 11.396937480120608 7.291849895001134 1 0 0
246 2 10.809451006291871 12.24099760563993 0.14350471675500126 0 0 0
248 2 10.664165926011892 9.482260996975166 0.30687327885421606 0 0 0
253 2 11.871449359516433 10.516441678064986 6.050833903471517 0 0 0
255 2 12.589781987603528 9.325495096264266 0.3922687536626025 0 0 0
63 1 2.217594831206893 18.53049838394268 4.0211318299726555 0 0 0
65 1 4.571145464950731 19.248333595805725 3.9926473426997076 0 0 0
67 1 1.0770012682385457 19.25524738271448 6.039367599135757 0 0 0
89 1 2.238538691445751 20.866505576295715 8.048387578202945 0 0 0
90 1 3.3955642939704966 19.9586356303024 1.9687603014938866 0 0 0
174 1 2.2362455958238487 20.85226712606767 3.9894610222235944 0 0 0
175 1 3.3947721292400916 19.972489324770773 5.9999831487199815 0 0 0
194 1 2.2550763569196706 18.538450281906186 8.068591842343654 0 0 0
196 1 4.566664598772807 19.302631193724462 8.040500030953412 0 0 0
198 1 1.0639281194757035 19.247408060509958 1.9752374454476633 0 0 0
250 2 3.734881413338043 18.4133233759056 1.165663846448948 0 0 0
24 1 9.287144014240145 18.53380474015977 8.045715612627966 0 0 0
41 1 8.080341066435995 19.252433533293612 1.9520981199216714 0 0 0
43 1 9.24529758778834 20.849555130591913 3.9749863810238293 0 0 0
46 1 6.8988443381917675 19.934718316422117 3.9723729755959796 0 0 0
62 1 5.722342596884268 18.53871772075439 6.03664331662028 0 0 0
88 1 5.7486801988671505 20.877452082960705 1.9649182099534095 0 0 0
95 1 9.259896342049435 18.547241058865126 3.979411589518832 0 0 0
99 1 8.067439855727745 19.23039815177194 6.004981216982497 0 0 0
101 1 9.25237159307344 20.85125680639657 8.050697810503816 0 0 0
104 1 6.9215629026086445 19.96124011706584 8.03886126735081 0 0 0
173 1 5.735170057228824 20.864931973696287 6.005163386735848 0 0 0
193 1 5.708599882366938 18.54219161316791 1.9072689777501661 0 0 0
249 2 6.057100541301037 18.416732760622004 7.922624836411567 0 0 -1
9 1 12.7960150359876 18.54168345619811 1.9581836893841276 0 0 0
39 1 11.633549967534716 19.242637374006364 8.055201718054311 0 0 0
42 1 12.851189265149001 20.833538845561275 6.003134708211181 0 0 0
44 1 10.386294674245788 19.840268594243724 5.983349383350555 0 0 0
92 1 13.979581122209636 19.93692250771614 8.065534241537463 0 0 0
94 1 12.805083972072255 18.515171984294867 6.009603523859435 0 0 0
97 1 11.617028068907514 19.23407774457275 3.972896307819878 0 0 0
100 1 12.791544076629418 20.84920155480755 1.9727813007217612 0 0 0
102 1 10.436418360531833 19.933714959359744 1.9559408487520527 0 0 0
178 1 13.967539799358283 19.92910677549892 3.9911408564367155 0 0 0
241 2 11.291032042921104 21.173480840800448 6.535750128912448 0 0 0
91 1 4.576607017587666 21.690799212013047 8.046375705238356 0 0 0
93 1 1.0700771435226557 21.663824165652223 1.9644913191828366 0 0 0
114 1 2.23900193658057 23.28677461907798 8.052105846731548 0 0 0
115 1 3.406928938338112 22.47194289328272 1.9599784782885123 0 0 0
116 1 4.580207956375654 24.100178042959683 8.05364607487702 0 0 0
118 1 1.0621362928014875 24.0821542504281 1.9620817183295964 0 0 0
134 1 2.2343169014737954 23.283582213816352 3.989574519013463 0 0 0
135 1 3.4078640202763792 22.481678977616635 6.016456423854444 0 0 0
136 1 4.577123857483997 24.09560814919576 3.991442727964833 0 0 0
138 1 1.0637049158814489 24.087382783797075 6.020767988395164 0 0 0
176 1 4.571341205898375 21.670777967799623 3.9852921206008434 0 0 0
180 1 1.077946708012382 21.671339623051217 6.020308816743354 0 0 0
220 1 2.236620600819021 25.71639955445236 8.054850037469222 0 0 0
222 1 3.4064007990978245 24.907056000389236 1.9649630276674241 0 0 0
223 1 2.2338262517279777 25.71425631713219 3.990361886535072 0 0 0
224 1 3.4091002454742267 24.908787295895017 6.022412813895946 0 0 0
10 1 9.265375233407289 25.72462736759805 3.9944060188646735 0 0 0
23 1 6.920242266215376 24.91353558250475 3.9939205239075015 0 0 0
47 1 8.075422810686204 21.66055373396246 6.013478120582792 0 0 0
59 1 9.267818005096908 25.731833820371303 8.056852015026928 0 0 0
83 1 9.252830981239027 23.288642145026888 3.984500276970265 0 0 0
86 1 6.912849461439885 22.472785377924485 3.9851269582294746 0 0 0
87 1 8.088777888416551 24.090941671336015 6.022331756038753 0 0 0
105 1 8.087100432184949 21.6694613838473 1.951163490059585 0 0 0
113 1 5.74869975312263 23.294672974505197 1.9601193078678212 0 0 0
133 1 5.74694440019107 23.290915291847273 6.01927819361568 0 0 0
147 1 9.25753724951102 23.2937865545147 8.055397421411426 0 0 0
150 1 6.917934731456207 22.47507493411752 8.045892250950018 0 0 0
151 1 8.090909232627371 24.096986733012546 1.960724361408893 0 0 0
217 1 6.923139332208302 24.914946879322578 8.055047929275846 0 0 0
218 1 5.75232987005738 25.728697908801838 1.968652314995425 0 0 0
221 1 5.7520653713427565 25.729720171590564 6.02740692658326 0 0 0
6 1 12.784903647027333 25.71948664450075 6.024515722382219 0 0 0
15 1 10.434465940297057 24.919982127969448 6.02315458617338 0 0 0
45 1 11.604756130612671 21.657833793465493 3.984400710626086 0 0 0
56 1 13.956704652836562 24.90673810722581 8.05182637743121 0 0 0
58 1 12.781824832698442 25.71087635592985 1.9613527320166766 0 0 0
60 1 10.435627248934038 24.911500769816836 1.9645185042357554 0 0 0
82 1 12.788540645870247 23.28793568846485 6.023476314847846 0 0 0
84 1 10.399529769319866 22.51135215377406 6.002014617144074 0 0 0
85 1 11.606624578445409 24.08365077985263 3.992767662338525 0 0 0
103 1 11.62228106167556 21.680568360051833 8.108641122282151 0 0 0
117 1 13.96494665597211 22.471108229794652 8.059056085545393 0 0 0
137 1 13.957205484262223 22.46408605752262 3.9908916122347864 0 0 0
146 1 12.78254398884516 23.279967383432957 1.9663348707417057 0 0 0
148 1 10.430944882828186 22.47159977763275 1.9687475269428325 0 0 0
149 1 11.608102164869742 24.095567522938406 8.05786362557024 0 0 0
226 1 13.954373506865881 24.899513341264374 3.9922663525819897 0 0 0
2 1 1.076727381391 26.486469888427 6.014516399208 0 0 0
4 1 3.40994705659 29.868465186677 6.018819642473 0 0 0
13 1 2.231707400416 28.219436872092 8.061255166394 0 0 0
17 1 3.400807342726 27.360067222931 1.978711111032 0 0 0
22 1 4.573483505235 28.817418863688 8.061385988497 0 0 0
30 1 1.048241393652 28.792818409533 1.955998087653 0 0 0
55 1 4.583388647805 26.508692099769 8.068630089909 0 0 0
57 1 1.05661244381 26.486834146213 1.962799781355 0 0 0
139 1 2.215835795925 28.236208145932 4.004391742266 0 0 0
140 1 3.405626364846 27.356368701043 6.018140358243 0 0 0
141 1 4.577589421227 28.801967620282 3.996477126821 0 0 0
143 1 1.058017558251 28.787563649091 6.048239430294 0 0 0
225 1 4.575138277146 26.508764702686 3.997607182929 0 0 0
229 1 3.394482639917 29.867230937087 1.985170036207 0 0 0
8 1 5.764516735426 28.255935750881 1.957580620955 0 0 0
27 1 8.098971336029 26.503884394275 6.036138669953 0 0 0
145 1 9.278891784752 28.240725439758 4.00373706331 0 0 0
161 1 6.939146555551 29.877497536567 4.006002941119 0 0 0
170 1 6.937718936774 29.880692313558 8.054253869507 0 0 0
215 1 6.92729760101 27.369423550906 3.993871809911 0 0 0
216 1 8.100270680094 28.800166222563 6.027167976635 0 0 0
219 1 8.100162096675 26.513224312002 1.958446921513 0 0 0
235 1 9.283640762128 28.286751710928 8.076086706183 0 0 0
238 1 6.935354434385 27.372930868536 8.07316631183 0 0 0
239 1 8.098209564276 28.814094047911 1.995625734989 0 0 0
240 1 5.744090534756 28.255448167592 6.033969020693 0 0 0
18 1 11.617012904198 26.489855621035 3.995117746306 0 0 0
26 1 13.958898717652 27.369825850631 8.04507131097 0 0 0
29 1 13.950212044191 29.879561746901 3.992627010394 0 0 0
37 1 10.444634783482 29.896639096737 6.03736714716 0 0 0
61 1 11.60650605196 26.50103274066 8.055540246254 0 0 0
142 1 13.957838200847 27.359328015833 3.993168326434 0 0 0
144 1 12.776089696829 28.24713687407 6.016990569192 0 0 0
167 1 10.442632460241 29.907563597992 1.981290523379 0 0 0
212 1 10.437962810647 27.38024660699 6.034886237116 0 0 0
214 1 11.622113933771 28.799369330956 3.997829767278 0 0 0
232 1 13.943125850932 29.897755988187 8.066013891458 0 0 0
234 1 12.783040582771 28.217976359987 1.975268646348 0 0 0
236 1 10.450743022716 27.377436476275 1.967506534883 0 0 0
237 1 11.635301333659 28.810247087868 8.073659229376 0 0 0

Velocities

14 0 0 0
20 0 0 0
119 0 0 0
162 0 0 0
164 0 0 0
165 0 0 0
171 0 0 0
207 0 0 0
209 0 0 0
210 0 0 0
211 0 0 0
227 0 0 0
230 0 0 0
231 0 0 0
16 0 0 0
21 0 0 0
25 0 0 0
124 0 0 0
125 0 0 0
159 0 0 0
160 0 0 0
163 0 0 0
168 0 0 0
169 0 0 0
172 0 0 0
206 0 0 0
208 0 0 0
228 0 0 0
1 0 0 0
7 0 0 0
11 0 0 0
33 0 0 0
36 0 0 0
120 0 0 0
121 0 0 0
122 0 0 0
123 0 0 0
166 0 0 0
213 0 0 0
233 0 0 0
12 0 0 0
19 0 0 0
28 0 0 0
31 0 0 0
72 0 0 0
74 0 0 0
75 0 0 0
76 0 0 0
106 0 0 0
108 0 0 0
109 0 0 0
201 0 0 0
203 0 0 0
204 0 0 0
5 0 0 0
69 0 0 0
70 0 0 0
71 0 0 0
73 0 0 0
81 0 0 0
130 0 0 0
132 0 0 0
188 0 0 0
190 0 0 0
199 0 0 0
200 0 0 0
32 0 0 0
35 0 0 0
38 0 0 0
68 0 0 0
77 0 0 0
78 0 0 0
79 0 0 0
80 0 0 0
111 0 0 0
112 0 0 0
126 0 0 0
127 0 0 0
129 0 0 0
187 0 0 0
51 0 0 0
53 0 0 0
54 0 0 0
64 0 0 0
110 0 0 0
152 0 0 0
153 0 0 0
154 0 0 0
177 0 0 0
191 0 0 0
195 0 0 0
205 0 0 0
243 0 0 0
251 0 0 0
252 0 0 0
3 0 0 0
40 0 0 0
48 0 0 0
49 0 0 0
50 0 0 0
52 0 0 0
98 0 0 0
107 0 0 0
131 0 0 0
184 0 0 0
185 0 0 0
189 0 0 0
192 0 0 0
202 0 0 0
242 0 0 0
247 0 0 0
254 0 0 0
256 0 0 0
34 0 0 0
66 0 0 0
96 0 0 0
128 0 0 0
155 0 0 0
156 0 0 0
157 0 0 0
158 0 0 0
179 0 0 0
181 0 0 0
182 0 0 0
183 0 0 0
186 0 0 0
197 0 0 0
244 0 0 0
245 0 0 0
246 0 0 0
248 0 0 0
253 0 0 0
255 0 0 0
63 0 0 0
65 0 0 0
67 0 0 0
89 0 0 0
90 0 0 0
174 0 0 0
175 0 0 0
194 0 0 0
196 0 0 0
198 0 0 0
250 0 0 0
24 0 0 0
41 0 0 0
43 0 0 0
46 0 0 0
62 0 0 0
88 0 0 0
95 0 0 0
99 0 0 0
101 0 0 0
104 0 0 0
173 0 0 0
193 0 0 0
249 0 0 0
9 0 0 0
39 0 0 0
42 0 0 0
44 0 0 0
92 0 0 0
94 0 0 0
97 0 0 0
100 0 0 0
102 0 0 0
178 0 0 0
241 0 0 0
91 0 0 0
93 0 0 0
114 0 0 0
115 0 0 0
116 0 0 0
118 0 0 0
134 0 0 0
135 0 0 0
136 0 0 0
138 0 0 0
176 0 0 0
180 0 0 0
220 0 0 0
222 0 0 0
223 0 0 0
224 0 0 0
10 0 0 0
23 0 0 0
47 0 0 0
59 0 0 0
83 0 0 0
86 0 0 0
87 0 0 0
105 0 0 0
113 0 0 0
133 0 0 0
147 0 0 0
150 0 0 0
151 0 0 0
217 0 0 0
218 0 0 0
221 0 0 0
6 0 0 0
15 0 0 0
45 0 0 0
56 0 0 0
58 0 0 0
60 0 0 0
82 0 0 0
84 0 0 0
85 0 0 0
103 0 0 0
117 0 0 0
137 0 0 0
146 0 0 0
148 0 0 0
149 0 0 0
226 0 0 0
2 0 0 0
4 0 0 0
13 0 0 0
17 0 0 0
22 0 0 0
30 0 0 0
55 0 0 0
57 0 0 0
139 0 0 0
140 0 0 0
141 0 0 0
143 0 0 0
225 0 0 0
229 0 0 0
8 0 0 0
27 0 0 0
145 0 0 0
161 0 0 0
170 0 0 0
215 0 0 0
216 0 0 0
219 0 0 0
235 0 0 0
238 0 0 0
239 0 0 0
240 0 0 0
18 0 0 0
26 0 0 0
29 0 0 0
37 0 0 0
61 0 0 0
142 0 0 0
144 0 0 0
167 0 0 0
212 0 0 0
214 0 0 0
232 0 0 0
234 0 0 0
236 0 0 0
237 0 0 0
