LAMMPS data file via write_data, version 29 Aug 2024, timestep = 20, units = metal

288 atoms
1 atom types

0 11.317147 xlo xhi
0 27.163582 ylo yhi
0 11.317147 zlo zhi

Masses

1 55.8

Atoms # atomic

1 1 0 0 0 0 0 0
2 1 1.414643375 1.414643557616 1.414643375 0 0 0
3 1 0 0 2.82928675 0 0 0
4 1 1.414643375 1.414643557616 4.243930125 0 0 0
9 1 0 2.82928660596 0 0 0 0
10 1 1.4146433749999996 4.372020128538422 1.4146433750000003 0 0 0
11 1 0 2.82928660596 2.82928675 0 0 0
12 1 1.4146433749999994 4.3720201285384155 4.243930124999998 0 0 0
73 1 2.82928675 0 0 0 0 0
74 1 4.243930125 1.414643557616 1.414643375 0 0 0
75 1 2.82928675 0 2.82928675 0 0 0
76 1 4.243930125 1.414643557616 4.243930125 0 0 0
81 1 2.82928675 2.82928660596 0 0 0 0
82 1 4.243930125000004 4.372020128538424 1.4146433750000036 0 0 0
83 1 2.82928675 2.82928660596 2.82928675 0 0 0
84 1 4.243930125 4.372020128538428 4.243930124999994 0 0 0
145 1 5.6585735 0 0 0 0 0
146 1 7.073216875 1.414643557616 1.414643375 0 0 0
147 1 5.6585735 0 2.82928675 0 0 0
148 1 7.073216875 1.414643557616 4.243930125 0 0 0
153 1 5.6585735 2.82928660596 0 0 0 0
154 1 7.073216875000003 4.372020128538421 1.4146433750000018 0 0 0
155 1 5.6585735 2.82928660596 2.82928675 0 0 0
156 1 7.073216874999998 4.372020128538426 4.243930124999991 0 0 0
217 1 8.48786025 0 0 0 0 0
218 1 9.902503625 1.414643557616 1.414643375 0 0 0
219 1 8.48786025 0 2.82928675 0 0 0
220 1 9.902503625 1.414643557616 4.243930125 0 0 0
225 1 8.48786025 2.82928660596 0 0 0 0
226 1 9.902503624999994 4.3720201285384155 1.4146433749999938 0 0 0
227 1 8.48786025 2.82928660596 2.82928675 0 0 0
228 1 9.902503625 4.372020128538418 4.243930125 0 0 0
17 1 11.317146999999999 5.904702603286676 1.1930978069087365e-15 -1 0 0
18 1 1.414643375000005 7.443256074701473 1.4146433749999985 0 0 0
19 1 8.424426525875903e-15 5.9047026032866805 2.8292867500000014 0 0 0
20 1 1.4146433750000085 7.443256074701483 4.243930125000003 0 0 0
25 1 0 8.977502622664758 11.31714699999999 0 0 -1
27 1 5.554389941532942e-15 8.977502622664762 2.8292867499999983 0 0 0
89 1 2.829286750000001 5.904702603286677 1.2482647593112757e-16 0 0 0
90 1 4.243930124999994 7.443256074701473 1.4146433749999996 0 0 0
91 1 2.829286750000005 5.904702603286684 2.8292867499999983 0 0 0
92 1 4.243930125000005 7.443256074701481 4.243930125000002 0 0 0
97 1 2.8292867500000045 8.977502622664755 1.945213133133114e-15 0 0 0
99 1 2.829286750000008 8.977502622664755 2.8292867500000045 0 0 0
161 1 5.658573499999995 5.904702603286674 0 0 0 0
162 1 7.073216875000008 7.443256074701479 1.4146433749999905 0 0 0
163 1 5.6585734999999975 5.904702603286684 2.829286750000007 0 0 0
164 1 7.073216874999997 7.443256074701481 4.2439301250000065 0 0 0
169 1 5.658573500000014 8.97750262266476 0 0 0 0
171 1 5.658573499999994 8.97750262266476 2.829286750000002 0 0 0
233 1 8.48786025 5.904702603286674 1.8646063754864097e-15 0 0 0
234 1 9.902503624999998 7.443256074701479 1.4146433749999932 0 0 0
235 1 8.48786025 5.9047026032866805 2.8292867500000005 0 0 0
236 1 9.902503624999989 7.443256074701482 4.243930125000001 0 0 0
241 1 8.487860249999985 8.977502622664758 1.054842886794974e-14 0 0 0
243 1 8.487860249999995 8.977502622664755 2.8292867500000085 0 0 0
26 1 1.4146433750000023 10.507153031779655 1.4146433750000103 0 0 0
28 1 1.4146433750000016 10.507153031779648 4.2439301249999986 0 0 0
33 1 5.919422299721204e-15 12.03799925998766 11.317146999999993 0 0 -1
34 1 1.4146433750000038 13.56703307386959 1.41464337500001 0 0 0
35 1 0 12.037999259987672 2.82928675 0 0 0
36 1 1.4146433749999867 13.567033073869583 4.243930124999995 0 0 0
98 1 4.243930125 10.507153031779646 1.4146433750000036 0 0 0
100 1 4.243930125000002 10.507153031779648 4.243930125000005 0 0 0
105 1 2.8292867499999996 12.03799925998767 3.589529209718381e-15 0 0 0
106 1 4.243930125000001 13.567033073869583 1.4146433750000011 0 0 0
107 1 2.8292867499999943 12.037999259987666 2.8292867499999965 0 0 0
108 1 4.243930125000009 13.567033073869581 4.2439301249999986 0 0 0
170 1 7.073216875000001 10.507153031779637 1.4146433750000047 0 0 0
172 1 7.073216874999997 10.50715303177965 4.243930125000009 0 0 0
177 1 5.658573500000003 12.037999259987672 11.317146999999991 0 0 -1
178 1 7.073216875 13.567033073869574 1.4146433750000054 0 0 0
179 1 5.658573499999997 12.037999259987673 2.8292867500000014 0 0 0
180 1 7.073216875000002 13.567033073869583 4.2439301249999986 0 0 0
242 1 9.902503625 10.50715303177965 1.414643374999997 0 0 0
244 1 9.902503625000005 10.507153031779657 4.243930125000004 0 0 0
249 1 8.487860249999994 12.037999259987668 7.380842338301674e-16 0 0 0
250 1 9.902503625 13.567033073869588 1.414643375000021 0 0 0
251 1 8.487860249999999 12.037999259987673 2.8292867499999996 0 0 0
252 1 9.902503624999994 13.567033073869586 4.243930124999995 0 0 0
41 1 1.1685781118141484e-14 15.098778235176207 1.3923352796938113e-15 0 0 0
42 1 1.4146433749999878 16.627802125493382 1.4146433750000096 0 0 0
43 1 1.088068255203143e-14 15.0987782351762 2.8292867500000005 0 0 0
44 1 1.4146433749999952 16.627802125493385 4.243930124999989 0 0 0
113 1 2.8292867499999965 15.098778235176193 0 0 0 0
114 1 4.243930125 16.62780212549339 1.4146433749999994 0 0 0
115 1 2.8292867500000054 15.098778235176201 2.829286749999994 0 0 0
116 1 4.243930124999999 16.627802125493385 4.243930125000001 0 0 0
185 1 5.658573499999993 15.09877823517619 2.2129314697202312e-15 0 0 0
186 1 7.073216874999996 16.627802125493393 1.414643375000007 0 0 0
187 1 5.658573499999997 15.098778235176194 2.8292867499999965 0 0 0
188 1 7.073216875000002 16.62780212549339 4.243930124999999 0 0 0
257 1 8.487860249999999 15.098778235176196 11.317146999999993 0 0 -1
258 1 9.902503625000014 16.627802125493393 1.4146433750000071 0 0 0
259 1 8.487860250000006 15.098778235176198 2.8292867499999965 0 0 0
260 1 9.902503625000001 16.627802125493385 4.243930124999994 0 0 0
49 1 1.108767113889036e-15 18.161849258336737 9.882595001810582e-15 0 0 0
50 1 1.414643374999994 19.693590941721215 1.4146433750000003 0 0 0
51 1 8.7850418916888e-15 18.161849258336723 2.8292867499999916 0 0 0
52 1 1.4146433750000014 19.69359094172122 4.243930124999995 0 0 0
57 1 1.3772290913531827e-15 21.222729561165316 0 0 0 0
59 1 11.317146999999997 21.222729561165323 2.829286749999994 -1 0 0
121 1 2.829286750000006 18.161849258336726 2.169740835900813e-15 0 0 0
122 1 4.243930124999998 19.69359094172123 1.4146433750000034 0 0 0
123 1 2.8292867499999925 18.161849258336737 2.8292867499999956 0 0 0
124 1 4.243930124999992 19.69359094172122 4.243930124999999 0 0 0
129 1 2.8292867500000067 21.22272956116532 9.295454404981862e-15 0 0 0
131 1 2.829286750000002 21.222729561165327 2.8292867499999894 0 0 0
193 1 5.658573500000001 18.16184925833673 11.317146999999999 0 0 -1
194 1 7.073216874999995 19.693590941721233 1.4146433750000023 0 0 0
195 1 5.658573500000008 18.16184925833673 2.829286749999992 0 0 0
196 1 7.073216875000009 19.693590941721215 4.243930124999994 0 0 0
201 1 5.658573499999996 21.222729561165323 1.1081908402264003e-14 0 0 0
203 1 5.658573499999999 21.222729561165316 2.829286749999994 0 0 0
265 1 8.487860250000002 18.16184925833673 11.317146999999991 0 0 -1
266 1 9.902503625000005 19.693590941721233 1.4146433750000007 0 0 0
267 1 8.48786025 18.161849258336726 2.8292867499999983 0 0 0
268 1 9.902503624999998 19.69359094172123 4.243930125000003 0 0 0
273 1 8.487860250000004 21.222729561165316 0 0 0 0
275 1 8.487860249999999 21.22272956116532 2.82928674999999 0 0 0
58 1 1.4146433750000116 22.75267454810492 1.4146433750000014 0 0 0
60 1 1.414643374999997 22.752674548104938 4.243930124999999 0 0 0
65 1 0 24.33429539404 0 0 0 0
66 1 1.414643375 25.748937423841 1.414643375 0 0 0
67 1 0 24.33429539404 2.82928675 0 0 0
68 1 1.414643375 25.748937423841 4.243930125 0 0 0
130 1 4.243930124999995 22.75267454810493 1.4146433749999945 0 0 0
132 1 4.243930124999996 22.75267454810493 4.243930125000001 0 0 0
137 1 2.82928675 24.33429539404 0 0 0 0
138 1 4.243930125 25.748937423841 1.414643375 0 0 0
139 1 2.82928675 24.33429539404 2.82928675 0 0 0
140 1 4.243930125 25.748937423841 4.243930125 0 0 0
202 1 7.073216875 22.75267454810492 1.414643375000005 0 0 0
204 1 7.073216875000007 22.75267454810493 4.243930124999993 0 0 0
209 1 5.6585735 24.33429539404 0 0 0 0
210 1 7.073216875 25.748937423841 1.414643375 0 0 0
211 1 5.6585735 24.33429539404 2.82928675 0 0 0
212 1 7.073216875 25.748937423841 4.243930125 0 0 0
274 1 9.902503625000001 22.752674548104928 1.4146433750000016 0 0 0
276 1 9.902503625000005 22.752674548104935 4.243930125000004 0 0 0
281 1 8.48786025 24.33429539404 0 0 0 0
282 1 9.902503625 25.748937423841 1.414643375 0 0 0
283 1 8.48786025 24.33429539404 2.82928675 0 0 0
284 1 9.902503625 25.748937423841 4.243930125 0 0 0
5 1 0 0 5.6585735 0 0 0
6 1 1.414643375 1.414643557616 7.073216875 0 0 0
7 1 0 0 8.48786025 0 0 0
8 1 1.414643375 1.414643557616 9.902503625 0 0 0
13 1 0 2.82928660596 5.6585735 0 0 0
14 1 1.4146433749999912 4.372020128538425 7.073216875 0 0 0
15 1 0 2.82928660596 8.48786025 0 0 0
16 1 1.4146433750000003 4.372020128538424 9.902503625 0 0 0
77 1 2.82928675 0 5.6585735 0 0 0
78 1 4.243930125 1.414643557616 7.073216875 0 0 0
79 1 2.82928675 0 8.48786025 0 0 0
80 1 4.243930125 1.414643557616 9.902503625 0 0 0
85 1 2.82928675 2.82928660596 5.6585735 0 0 0
86 1 4.243930124999999 4.372020128538422 7.073216875 0 0 0
87 1 2.82928675 2.82928660596 8.48786025 0 0 0
88 1 4.243930124999996 4.372020128538428 9.902503624999994 0 0 0
149 1 5.6585735 0 5.6585735 0 0 0
150 1 7.073216875 1.414643557616 7.073216875 0 0 0
151 1 5.6585735 0 8.48786025 0 0 0
152 1 7.073216875 1.414643557616 9.902503625 0 0 0
157 1 5.6585735 2.82928660596 5.6585735 0 0 0
158 1 7.073216874999995 4.372020128538423 7.073216875000002 0 0 0
159 1 5.6585735 2.82928660596 8.48786025 0 0 0
160 1 7.0732168750000035 4.372020128538426 9.902503625000003 0 0 0
221 1 8.48786025 0 5.6585735 0 0 0
222 1 9.902503625 1.414643557616 7.073216875 0 0 0
223 1 8.48786025 0 8.48786025 0 0 0
224 1 9.902503625 1.414643557616 9.902503625 0 0 0
229 1 8.48786025 2.82928660596 5.6585735 0 0 0
230 1 9.902503625000007 4.372020128538417 7.073216875 0 0 0
231 1 8.48786025 2.82928660596 8.48786025 0 0 0
232 1 9.902503625000003 4.372020128538432 9.902503625 0 0 0
21 1 2.6036311679519797e-15 5.904702603286671 5.658573500000007 0 0 0
22 1 1.414643374999991 7.443256074701485 7.073216874999998 0 0 0
23 1 0 5.90470260328668 8.487860249999995 0 0 0
24 1 1.4146433749999947 7.443256074701477 9.902503624999992 0 0 0
29 1 1.4631016236428651e-16 8.977502622664767 5.658573500000003 0 0 0
31 1 7.920343572918977e-15 8.977502622664758 8.487860250000008 0 0 0
93 1 2.8292867500000036 5.904702603286683 5.658573500000002 0 0 0
94 1 4.243930124999998 7.44325607470148 7.073216874999991 0 0 0
95 1 2.8292867500000023 5.904702603286673 8.487860250000006 0 0 0
96 1 4.243930124999998 7.443256074701483 9.902503624999996 0 0 0
101 1 2.8292867500000045 8.977502622664758 5.658573499999987 0 0 0
103 1 2.829286750000001 8.977502622664758 8.48786025000001 0 0 0
165 1 5.658573500000005 5.904702603286683 5.658573499999993 0 0 0
166 1 7.073216874999995 7.443256074701483 7.073216875000001 0 0 0
167 1 5.658573500000011 5.904702603286667 8.487860250000008 0 0 0
168 1 7.073216874999998 7.443256074701484 9.902503624999996 0 0 0
173 1 5.658573500000004 8.977502622664762 5.6585734999999895 0 0 0
175 1 5.658573499999994 8.977502622664758 8.487860250000006 0 0 0
237 1 8.487860250000004 5.904702603286678 5.658573499999991 0 0 0
238 1 9.902503625 7.44325607470148 7.073216875000005 0 0 0
239 1 8.487860249999997 5.904702603286667 8.487860250000008 0 0 0
240 1 9.902503625000007 7.443256074701477 9.902503624999998 0 0 0
245 1 8.487860249999995 8.977502622664753 5.658573499999983 0 0 0
247 1 8.487860249999994 8.977502622664757 8.487860249999999 0 0 0
30 1 1.4146433749999883 10.507153031779652 7.073216875000008 0 0 0
32 1 1.414643374999987 10.507153031779648 9.902503624999989 0 0 0
37 1 0 12.03799925998766 5.658573499999998 0 0 0
38 1 1.4146433749999936 13.567033073869585 7.073216874999992 0 0 0
39 1 4.779845062711964e-15 12.037999259987664 8.48786025 0 0 0
40 1 1.414643374999995 13.567033073869588 9.902503625000003 0 0 0
102 1 4.243930125000002 10.507153031779655 7.073216875000003 0 0 0
104 1 4.243930125000001 10.507153031779644 9.902503624999996 0 0 0
109 1 2.8292867500000067 12.037999259987666 5.658573499999998 0 0 0
110 1 4.243930125000011 13.567033073869577 7.073216875000001 0 0 0
111 1 2.829286750000005 12.03799925998766 8.487860249999999 0 0 0
112 1 4.243930125000004 13.56703307386958 9.902503624999998 0 0 0
174 1 7.0732168749999955 10.507153031779653 7.073216874999993 0 0 0
176 1 7.073216874999993 10.50715303177965 9.902503625000005 0 0 0
181 1 5.658573499999997 12.03799925998766 5.658573500000001 0 0 0
182 1 7.073216874999981 13.567033073869595 7.073216875000001 0 0 0
183 1 5.6585734999999975 12.037999259987677 8.487860249999999 0 0 0
184 1 7.073216875 13.567033073869586 9.902503625000001 0 0 0
246 1 9.902503625000016 10.507153031779648 7.073216875000002 0 0 0
248 1 9.902503625000007 10.507153031779646 9.902503624999994 0 0 0
253 1 8.487860249999997 12.037999259987663 5.658573499999988 0 0 0
254 1 9.902503624999996 13.567033073869586 7.0732168750000035 0 0 0
255 1 8.487860249999997 12.037999259987673 8.487860250000006 0 0 0
256 1 9.902503624999996 13.56703307386958 9.902503624999992 0 0 0
45 1 1.2063907578857963e-14 15.098778235176189 5.658573499999994 0 0 0
46 1 1.414643374999999 16.627802125493385 7.073216875000001 0 0 0
47 1 8.607100070286707e-16 15.098778235176194 8.487860249999992 0 0 0
48 1 1.4146433750000065 16.627802125493385 9.902503625000014 0 0 0
117 1 2.8292867499999925 15.098778235176193 5.658573500000006 0 0 0
118 1 4.243930125000005 16.62780212549339 7.073216875000006 0 0 0
119 1 2.829286750000009 15.098778235176196 8.487860250000006 0 0 0
120 1 4.243930124999998 16.627802125493385 9.902503624999998 0 0 0
189 1 5.658573499999998 15.098778235176184 5.658573500000005 0 0 0
190 1 7.073216875000014 16.62780212549338 7.073216875000007 0 0 0
191 1 5.6585735000000055 15.098778235176196 8.487860249999999 0 0 0
192 1 7.073216875000009 16.627802125493385 9.90250362499999 0 0 0
261 1 8.48786025 15.098778235176194 5.658573500000002 0 0 0
262 1 9.902503624999985 16.627802125493382 7.073216875000003 0 0 0
263 1 8.487860249999997 15.098778235176203 8.487860249999997 0 0 0
264 1 9.902503624999987 16.627802125493385 9.902503624999998 0 0 0
53 1 2.6223825937918293e-15 18.161849258336737 5.658573500000004 0 0 0
54 1 1.4146433749999783 19.693590941721222 7.073216874999997 0 0 0
55 1 4.900440689960992e-15 18.161849258336744 8.48786025 0 0 0
56 1 1.4146433749999838 19.69359094172122 9.902503625000005 0 0 0
61 1 2.928736809904975e-15 21.22272956116532 5.658573500000009 0 0 0
63 1 11.317146999999997 21.22272956116532 8.487860250000004 -1 0 0
125 1 2.829286750000002 18.161849258336726 5.658573500000001 0 0 0
126 1 4.243930125000008 19.693590941721233 7.073216875000006 0 0 0
127 1 2.829286750000006 18.16184925833673 8.487860249999997 0 0 0
128 1 4.243930125000002 19.693590941721226 9.902503625 0 0 0
133 1 2.829286750000007 21.22272956116532 5.658573499999991 0 0 0
135 1 2.8292867500000045 21.222729561165327 8.487860250000002 0 0 0
197 1 5.658573499999997 18.16184925833673 5.658573499999995 0 0 0
198 1 7.073216874999998 19.693590941721222 7.073216875000003 0 0 0
199 1 5.658573499999998 18.161849258336733 8.487860249999995 0 0 0
200 1 7.0732168750000035 19.69359094172122 9.902503624999998 0 0 0
205 1 5.658573500000001 21.222729561165323 5.658573500000009 0 0 0
207 1 5.6585734999999975 21.222729561165316 8.487860249999995 0 0 0
269 1 8.487860249999995 18.16184925833673 5.658573499999996 0 0 0
270 1 9.902503625000003 19.69359094172122 7.073216875 0 0 0
271 1 8.487860250000006 18.161849258336726 8.48786025 0 0 0
272 1 9.902503625000003 19.69359094172123 9.902503625 0 0 0
277 1 8.487860250000002 21.22272956116532 5.6585735 0 0 0
279 1 8.487860250000011 21.222729561165327 8.487860250000006 0 0 0
62 1 1.414643375000003 22.752674548104935 7.073216874999995 0 0 0
64 1 1.4146433750000027 22.75267454810492 9.902503625000003 0 0 0
69 1 0 24.33429539404 5.6585735 0 0 0
70 1 1.414643375 25.748937423841 7.073216875 0 0 0
71 1 0 24.33429539404 8.48786025 0 0 0
72 1 1.414643375 25.748937423841 9.902503625 0 0 0
134 1 4.243930124999997 22.75267454810493 7.073216875000004 0 0 0
136 1 4.243930125 22.752674548104924 9.902503625 0 0 0
141 1 2.82928675 24.33429539404 5.6585735 0 0 0
142 1 4.243930125 25.748937423841 7.073216875 0 0 0
143 1 2.82928675 24.33429539404 8.48786025 0 0 0
144 1 4.243930125 25.748937423841 9.902503625 0 0 0
206 1 7.0732168750000035 22.752674548104935 7.073216875000004 0 0 0
208 1 7.073216875000008 22.752674548104928 9.902503624999992 0 0 0
213 1 5.6585735 24.33429539404 5.6585735 0 0 0
214 1 7.073216875 25.748937423841 7.073216875 0 0 0
215 1 5.6585735 24.33429539404 8.48786025 0 0 0
216 1 7.073216875 25.748937423841 9.902503625 0 0 0
278 1 9.902503624999996 22.752674548104924 7.073216875000004 0 0 0
280 1 9.902503624999998 22.752674548104913 9.902503624999992 0 0 0
285 1 8.48786025 24.33429539404 5.6585735 0 0 0
286 1 9.902503625 25.748937423841 7.073216875 0 0 0
287 1 8.48786025 24.33429539404 8.48786025 0 0 0
288 1 9.902503625 25.748937423841 9.902503625 0 0 0

Velocities

1 0 0 0
2 0 0 0
3 0 0 0
4 0 0 0
9 0 0 0
10 0 0 0
11 0 0 0
12 0 0 0
73 0 0 0
74 0 0 0
75 0 0 0
76 0 0 0
81 0 0 0
82 0 0 0
83 0 0 0
84 0 0 0
145 0 0 0
146 0 0 0
147 0 0 0
148 0 0 0
153 0 0 0
154 0 0 0
155 0 0 0
156 0 0 0
217 0 0 0
218 0 0 0
219 0 0 0
220 0 0 0
225 0 0 0
226 0 0 0
227 0 0 0
228 0 0 0
17 0 0 0
18 0 0 0
19 0 0 0
20 0 0 0
25 0 0 0
27 0 0 0
89 0 0 0
90 0 0 0
91 0 0 0
92 0 0 0
97 0 0 0
99 0 0 0
161 0 0 0
162 0 0 0
163 0 0 0
164 0 0 0
169 0 0 0
171 0 0 0
233 0 0 0
234 0 0 0
235 0 0 0
236 0 0 0
241 0 0 0
243 0 0 0
26 0 0 0
28 0 0 0
33 0 0 0
34 0 0 0
35 0 0 0
36 0 0 0
98 0 0 0
100 0 0 0
105 0 0 0
106 0 0 0
107 0 0 0
108 0 0 0
170 0 0 0
172 0 0 0
177 0 0 0
178 0 0 0
179 0 0 0
180 0 0 0
242 0 0 0
244 0 0 0
249 0 0 0
250 0 0 0
251 0 0 0
252 0 0 0
41 0 0 0
42 0 0 0
43 0 0 0
44 0 0 0
113 0 0 0
114 0 0 0
115 0 0 0
116 0 0 0
185 0 0 0
186 0 0 0
187 0 0 0
188 0 0 0
257 0 0 0
258 0 0 0
259 0 0 0
260 0 0 0
49 0 0 0
50 0 0 0
51 0 0 0
52 0 0 0
57 0 0 0
59 0 0 0
121 0 0 0
122 0 0 0
123 0 0 0
124 0 0 0
129 0 0 0
131 0 0 0
193 0 0 0
194 0 0 0
195 0 0 0
196 0 0 0
201 0 0 0
203 0 0 0
265 0 0 0
266 0 0 0
267 0 0 0
268 0 0 0
273 0 0 0
275 0 0 0
58 0 0 0
60 0 0 0
65 0 0 0
66 0 0 0
67 0 0 0
68 0 0 0
130 0 0 0
132 0 0 0
137 0 0 0
138 0 0 0
139 0 0 0
140 0 0 0
202 0 0 0
204 0 0 0
209 0 0 0
210 0 0 0
211 0 0 0
212 0 0 0
274 0 0 0
276 0 0 0
281 0 0 0
282 0 0 0
283 0 0 0
284 0 0 0
5 0 0 0
6 0 0 0
7 0 0 0
8 0 0 0
13 0 0 0
14 0 0 0
15 0 0 0
16 0 0 0
77 0 0 0
78 0 0 0
79 0 0 0
80 0 0 0
85 0 0 0
86 0 0 0
87 0 0 0
88 0 0 0
149 0 0 0
150 0 0 0
151 0 0 0
152 0 0 0
157 0 0 0
158 0 0 0
159 0 0 0
160 0 0 0
221 0 0 0
222 0 0 0
223 0 0 0
224 0 0 0
229 0 0 0
230 0 0 0
231 0 0 0
232 0 0 0
21 0 0 0
22 0 0 0
23 0 0 0
24 0 0 0
29 0 0 0
31 0 0 0
93 0 0 0
94 0 0 0
95 0 0 0
96 0 0 0
101 0 0 0
103 0 0 0
165 0 0 0
166 0 0 0
167 0 0 0
168 0 0 0
173 0 0 0
175 0 0 0
237 0 0 0
238 0 0 0
239 0 0 0
240 0 0 0
245 0 0 0
247 0 0 0
30 0 0 0
32 0 0 0
37 0 0 0
38 0 0 0
39 0 0 0
40 0 0 0
102 0 0 0
104 0 0 0
109 0 0 0
110 0 0 0
111 0 0 0
112 0 0 0
174 0 0 0
176 0 0 0
181 0 0 0
182 0 0 0
183 0 0 0
184 0 0 0
246 0 0 0
248 0 0 0
253 0 0 0
254 0 0 0
255 0 0 0
256 0 0 0
45 0 0 0
46 0 0 0
47 0 0 0
48 0 0 0
117 0 0 0
118 0 0 0
119 0 0 0
120 0 0 0
189 0 0 0
190 0 0 0
191 0 0 0
192 0 0 0
261 0 0 0
262 0 0 0
263 0 0 0
264 0 0 0
53 0 0 0
54 0 0 0
55 0 0 0
56 0 0 0
61 0 0 0
63 0 0 0
125 0 0 0
126 0 0 0
127 0 0 0
128 0 0 0
133 0 0 0
135 0 0 0
197 0 0 0
198 0 0 0
199 0 0 0
200 0 0 0
205 0 0 0
207 0 0 0
269 0 0 0
270 0 0 0
271 0 0 0
272 0 0 0
277 0 0 0
279 0 0 0
62 0 0 0
64 0 0 0
69 0 0 0
70 0 0 0
71 0 0 0
72 0 0 0
134 0 0 0
136 0 0 0
141 0 0 0
142 0 0 0
143 0 0 0
144 0 0 0
206 0 0 0
208 0 0 0
213 0 0 0
214 0 0 0
215 0 0 0
216 0 0 0
278 0 0 0
280 0 0 0
285 0 0 0
286 0 0 0
287 0 0 0
288 0 0 0
