 # File generated with Atomsk by user on 2025-06-01 13:54:27
  
         255  atoms
           2  atom types
 
      0.000000000000      14.073665980000  xlo xhi
      0.000000000000      28.278961560000  ylo yhi
      0.000000000000       8.125434940000  zlo zhi
 
Masses
 
            1   1.00800000              # H
            2   4.00260200              # He
 
Atoms # atomic
 
         1    1       11.613828981964       3.202380125665       3.997528486800
         2    1        1.066082449772      24.721114065831       6.036100657923
         3    1        6.887958373584       9.649226872317       3.983220733432
         4    1        3.419439639106      28.090036696864       6.030412772210
         5    1        5.759509176705       6.385167073942       1.962876431765
         6    1       12.800488831649      23.981136126677       6.027758761396
         7    1       12.789802415598       3.952678604443       6.030413259736
         8    1        5.751821155190      26.434256718998       1.954590194467
         9    1       12.778056815444      16.759220163169       1.934883170836
        10    1        9.278938694182      23.952072026203       4.019831749404
        11    1       10.453954696319       2.334276529635       6.043213419906
        12    1        3.408194498514       4.774050056658       1.966862038857
        13    1        2.247021354236      26.468954909106       8.057648092741
        14    1        1.079329147139       0.902152694031       6.045753512123
        15    1       10.467484555845      23.141455500281       6.051220711022
        16    1        8.099442762691       3.194923403306       6.018720921366
        17    1        3.400453841489      25.581013824287       1.965359727191
        18    1       11.625525042814      24.725785339654       3.997818402319
        19    1        1.065421409680       5.579639042028       1.962749349962
        20    1        2.247060901237       1.447620940759       4.005640677281
        21    1        9.276750802069       3.959946744273       3.975158920647
        22    1        4.592065229076      27.008802500838       8.058508576301
        23    1        6.938450605757      23.120870647486       4.012712080801
        24    1        9.263261615437      16.745954700865       8.056317309007
        25    1        6.927158036911       2.318946611101       3.990311881758
        26    1       13.973545357272      25.595504824237       8.058278789001
        27    1        8.101377610290      24.710878114676       6.033652708138
        28    1        2.234042056522       6.367334331875       8.051924373861
        29    1       13.976420466495      28.098718210501       4.017007673236
        30    1        1.054964675857      27.009046314661       1.974453145196
        31    1        4.580062643781       5.601716881306       8.060754852791
        32    1       13.974518269801       4.763074205187       8.048100381669
        33    1       11.607288527173       0.903787241806       4.025489571007
        34    1       10.433672714065      12.246962150867       1.910560087614
        35    1       11.624466140185       5.590060590236       8.059079956886
        36    1       12.803473856204       1.444425984515       6.043798776239
        37    1       10.442898002115      28.103703208028       6.050466101879
        38    1       12.785233681410       6.372440738736       1.962454234165
        39    1       11.589454799854      17.384328951325       8.099631321278
        40    1        6.934036118949      12.243069588541       8.116010085504
        41    1        8.136590907729      17.381436274465       1.899222505734
        42    1       12.767116651194      19.136878884444       6.148835136148
        43    1        9.291587120009      19.125323353169       3.992542638667
        44    1       10.396166957175      18.248428776071       6.073653655567
        45    1       11.616844968584      19.923761129828       3.972366696185
        46    1        6.958846725442      18.278399465904       3.992609754759
        47    1        8.111176118755      19.889469213162       6.046473181895
        48    1        8.096921183957      10.521975619260       1.943804735891
        49    1        9.277016512883      11.130820532666       8.104408345734
        50    1        6.918864003339       9.671655007374       8.086356635708
        51    1        4.579024288705      10.502526242271       3.993240613528
        52    1        5.679954120600      11.134933273801       6.049589692467
        53    1        3.412343415245       9.598333473391       6.010568835000
        54    1        1.099567782501      10.507707783595       5.976966180060
        55    1        4.581617502399      24.700972307342       8.054350547480
        56    1       13.973775743184      23.148681843455       8.070149805686
        57    1        1.069062267070      24.706485485223       1.954075529418
        58    1       12.790883273145      23.966351306190       1.966000255227
        59    1        9.289554319694      23.955681714736       8.070695591151
        60    1       10.446865227818      23.143887916352       1.978195151748
        61    1       11.631482144150      24.702444893076       8.060213861332
        62    1        5.783985111421      16.737990696480       6.193598157232
        63    1        2.177717837904      16.745843243117       3.989422715413
        64    1        3.425300335830      12.343536557482       6.030201754665
        65    1        4.489227966603      17.081304692262       4.079778201980
        66    1       13.894110490274      12.128709212307       3.924409729134
        67    1        1.044204936006      17.247391912634       6.128336288881
        68    1       10.456918047428       4.787338905186       1.962058850501
        69    1        8.098812825402       5.604016692513       1.963377689846
        70    1        9.267578993950       6.388137373163       8.065772390120
        71    1        6.934857739569       4.784210873349       8.060636140186
        72    1        4.587134801673       5.603080994768       3.996494037678
        73    1        5.746345936177       6.381453391350       6.040883776454
        74    1        3.412199019432       4.762233296286       6.033056707485
        75    1        1.062859720999       5.595810118253       6.027856916650
        76    1        2.239882205694       6.375698389962       4.005394882874
        77    1       13.962606178179       4.766103467546       3.994366555048
        78    1       11.623134912120       5.585787379798       3.988476996040
        79    1       12.797201504750       6.379563087851       6.014443936177
        80    1       10.453008523755       4.767794988143       6.022515905755
        81    1        8.096890644102       5.584421027230       6.028292846234
        82    1       12.791824379189      21.566284353027       6.047721736228
        83    1        9.288054629848      21.527530394605       4.015943566277
        84    1       10.434123212113      20.727801897420       6.052563357892
        85    1       11.619205544579      22.342092475041       3.996525726874
        86    1        6.949999174587      20.712002512881       4.007980396272
        87    1        8.117892212897      22.319687974998       6.043919357694
        88    1        5.804712806676      19.127418659311       1.921837785039
        89    1        2.252700782142      19.103603770937       8.092568611974
        90    1        3.417360536431      18.222803694454       1.983062856058
        91    1        4.604474684054      19.877667380166       8.055994322968
        92    1       13.977264604980      18.246277243476       8.087889092738
        93    1        1.080506409298      19.877816156356       1.955309539223
        94    1       12.722081905215      16.774742396075       6.103927157304
        95    1        9.297490037731      16.781741594331       4.013411924512
        96    1       10.468089301273      12.335162050231       6.065457691852
        97    1       11.613787605386      17.251264074211       3.939420820151
        98    1        6.891025729084      12.070046113686       4.011793662890
        99    1        8.114420661710      17.341229882267       6.040381218303
       100    1       12.784273575917      19.111180409890       1.957822736250
       101    1        9.267051090739      19.100075436609       8.077346584666
       102    1       10.457412173840      18.242655613041       1.967121402740
       103    1       11.607084459017      19.896396511218       8.089492241052
       104    1        6.956284614550      18.234051472975       8.066334101438
       105    1        8.115356701235      19.889525937194       1.963587407322
       106    1        4.579531222154       8.017349356769       3.998995940350
       107    1        5.746720436429       8.796246201861       6.052326582717
       108    1        3.409031600167       7.178153621334       6.029392542599
       109    1        1.069490106515       8.004394632695       6.034232214158
       110    1        2.235485170232       8.774950805924       3.991572786752
       111    1       13.976340668809       7.194425954932       3.993381346061
       112    1       11.623322373351       8.009043017873       3.976516193300
       113    1        5.760948349788      21.510657731665       1.967986030272
       114    1        2.257434881904      21.521082514138       8.067908973238
       115    1        3.422922027016      20.707992024278       1.958734735067
       116    1        4.596029077099      22.307755278665       8.055611127456
       117    1       13.966811671047      20.729151332295       8.086937035526
       118    1        1.081234862249      22.321843737017       1.969142929699
       119    1        2.237440846857       3.949773985681       8.079272231493
       120    1       13.979577330511       2.328963876183       8.075261435552
       121    1       11.631847215045       3.198422380460       8.066944809128
       122    1       12.797953319986       3.952130769710       1.961256951327
       123    1       10.459050067087       2.340758743069       1.966786066041
       124    1        8.100241724709       3.211004168900       1.965609746824
       125    1        9.280263166888       3.968671547303       8.060869908949
       126    1       13.964410985104       7.177240812235       8.061795152226
       127    1       11.622723257390       8.010641491154       8.054101990425
       128    1       12.782906319267       8.777162794396       1.965653786682
       129    1       10.438468315748       7.204719874067       1.948317846220
       130    1        8.086753382497       8.015884981092       1.949804069525
       131    1        9.266599044588       8.781301658441       8.065475974254
       132    1        6.914881437340       7.199522907787       8.057071105606
       133    1        5.777219900184      21.506678092974       6.032454775265
       134    1        2.250655737739      21.526374518051       3.991687599148
       135    1        3.442895092301      20.713155403960       6.038664232646
       136    1        4.597285714734      22.300395335466       3.997840666011
       137    1       13.963726864201      20.790547136054       3.949874923490
       138    1        1.080136553356      22.352108744965       6.028397339328
       139    1        2.234472288491      26.478029261545       3.994954999046
       140    1        3.405879380461      25.584956393325       6.033983413340
       141    1        4.583380369799      26.999158420179       3.995338194558
       142    1       13.976676607216      25.597667303576       3.998286183608
       143    1        1.058353614625      27.022838713371       6.041807963425
       144    1       12.788388856586      26.476700476209       6.031438527117
       145    1        9.269557329177      26.469266891284       3.998627451876
       146    1       12.789165019265      21.541943025826       1.956363164371
       147    1        9.266724018742      21.522531713648       8.079144499656
       148    1       10.446905619240      20.716392903228       1.974234408487
       149    1       11.614865648200      22.313949393724       8.068728423352
       150    1        6.943762429508      20.693659254523       8.068562664479
       151    1        8.110350838982      22.317919080831       1.977914011700
       152    1        3.405129535537       9.648205839735       1.967420825018
       153    1        1.042264881150      10.517727536574       1.956863447400
       154    1        2.202594168417      11.122428858931       8.096092938125
       155    1       13.963491833979       9.598403134484       8.104259487766
       156    1       11.605298933014      10.498829477373       8.058959131669
       157    1       12.752051776919      11.131667163727       1.951583133505
       158    1       10.443350470476       9.662128604203       1.933747722557
       159    1        8.099002538419       0.908472199057       6.036117152556
       160    1        9.264243253639       1.457169734995       3.993319511501
       161    1        6.916983902301      28.076352770427       4.000041846336
       162    1        4.587104824764       3.214658141984       8.070135504920
       163    1        5.760636477350       3.953557578155       1.971075401891
       164    1        3.421490453712       2.325684082681       1.974229451972
       165    1        1.070663709521       3.190509129156       1.981539337007
       166    1       12.803155087669       1.439434767247       1.991632508526
       167    1       10.450046157803      28.092959726058       1.980672678116
       168    1        8.089620751204       0.890745690156       1.972899887052
       169    1        9.281760464211       1.445316402550       8.081593424492
       170    1        6.933701587909      28.081561429819       8.067255281997
       171    1        4.587315085334       0.886498105049       3.986100225066
       172    1        5.764856747568       1.450883070199       6.023114100275
       173    1        5.777211737458      19.101923694663       6.048231932288
       174    1        2.254786921650      19.112144718441       3.953257217038
       175    1        3.463320485212      18.225267955597       6.071584432306
       176    1        4.602616397198      19.881066841474       4.018351132649
       177    1        2.259809531565      11.111688611226       3.977247319936
       178    1       13.936803096761      18.224886063537       3.902375093409
       179    1       13.953589602595       9.625683413414       3.975941400032
       180    1        1.086364150552      19.954557801184       6.095364492710
       181    1       11.619326578106      10.502880767473       3.969038924305
       182    1       12.762387336478      11.120121584036       5.982903110353
       183    1       10.474626519120       9.611696461225       6.050133202810
       184    1        8.010028962830      10.692451488451       6.112045441861
       185    1        9.268104363901      11.138416825999       3.929619026728
       186    1       12.798944528281       8.785622138906       6.011514554373
       187    1       10.458912989580       7.180017055555       6.028971970087
       188    1        8.106079903567       7.974658551470       6.071878248033
       189    1        9.310189128754       8.761640312700       3.935516792425
       190    1        6.918800812579       7.189665365638       4.002107006880
       191    1        4.612743244290      10.546565238497       0.015510886520
       192    1        5.758204547869      11.136202847209       1.983531449891
       193    1        5.764091703085      16.747956213322       1.929742695675
       194    1        2.269806619457      16.756250859106       0.002456481491
       195    1        3.434972181301      12.225352036066       1.966853669659
       196    1        4.582179323145      17.361082547223       8.100496273828
       197    1       13.985204826589      12.322939513996       0.024697259500
       198    1        1.059159754213      17.356743407537       1.951407705364
       199    1        9.274496060042       6.373320210027       3.989472849346
       200    1        6.932821983785       4.773365138846       3.999535794248
       201    1        4.584661917824       8.028680479812       8.050202512943
       202    1        5.739450825004       8.790413826902       1.969710735093
       203    1        3.405785368372       7.198762109143       1.966949468537
       204    1        1.064983014985       8.011693373648       1.965729109464
       205    1        2.243802988300       8.778108941304       8.066658143783
       206    1        6.945790726249       2.326993711217       8.069344981355
       207    1        4.584790269657       3.203262831221       4.005018187711
       208    1        5.759145090966       3.959709647770       6.036565026529
       209    1        3.419782332872       2.325603972424       6.033469560835
       210    1        1.058953012059       3.203476541501       6.031357841548
       211    1        2.241364162722       3.949915546972       4.003325090832
       212    1       10.446648493362      25.594469859436       6.031054194044
       213    1       13.960592095840       2.320754814027       4.008617674135
       214    1       11.612362365233      27.013596676731       4.000269927295
       215    1        6.930608759073      25.582839691276       4.006510830109
       216    1        8.097593905191      27.030262844290       6.028677016798
       217    1        6.935780127637      23.123538916113       8.068770106833
       218    1        5.757917445083      23.932000675175       1.966314059525
       219    1        8.101075026471      24.691278717549       1.969610792243
       220    1        2.246191852363      23.940677959388       8.067533496889
       221    1        5.754149502490      23.933430966675       6.042469211320
       222    1        3.418938475860      23.129720094113       1.972658317872
       223    1        2.234543782715      23.959066248666       4.004381316120
       224    1        3.425763500177      23.131890534719       6.029115790285
       225    1        4.582966181810      24.704660613393       3.990409224469
       226    1       13.967226140510      23.169216191958       3.989572467179
       227    1        4.581446648094       0.899720029170       8.055583744740
       228    1        5.756335142817       1.440309262746       1.946999900672
       229    1        3.415936562907      28.089983704676       1.968039008108
       230    1        1.067962269337       0.889360927156       1.961895935531
       231    1        2.241717411738       1.452284502103       8.060533759706
       232    1       13.968673194846      28.102538126258       8.082476171744
       233    1       11.621588075492       0.886538657756       8.082076725362
       234    1       12.797802168814      26.481848679724       1.975369450494
       235    1        9.283465770318      26.456460445821       8.060952869640
       236    1       10.448347466319      25.582556817483       1.973493531329
       237    1       11.619632680341      26.995189977021       8.071670968361
       238    1        6.932970038751      25.564424781508       8.052119140536
       239    1        8.095130028488      26.995643271700       1.969384417626
       240    1        5.754531039575      26.449111200576       6.028449667129
       241    2        8.153166730783       9.312493113078       5.033610902689
       242    2        1.729545885397      12.104954282230       5.292270067001
       243    2        1.714802594390      12.271858527700       2.689846176405
       244    2       14.021283795222      10.955234524770       7.104451694843
       245    2       13.865504216066      19.546175120549       4.976089486170
       246    2        1.863445839737      18.552118298566       5.500214247882
       247    2        4.802685240246      18.423068388269       3.065291810838
       248    2       12.059153550370      12.270844958806       7.236152807068
       249    2        9.675634806001      10.954501092983       5.541556867128
       250    2       13.870556099207      16.893407330239       4.937916355331
       251    2        6.148991408815      16.912603190609       4.563116449212
       252    2       10.647466899861      12.204501227172       3.759383526827
       253    2        7.805315669272      16.757330854828       3.363278892804
       254    2        3.523688349539      10.969078920509       6.947434083721
       255    2       11.631090896235      18.550482755634       4.993392356112
