LAMMPS data file via write_data, version 29 Aug 2024, timestep = 8, units = metal

240 atoms
1 atom types

0 13.98284573 xlo xhi
0 28.81841258 ylo yhi
0 8.07299975 zlo zhi

Masses

1 55.8

Atoms # atomic

14 1 1.104123392353 0.978309288037 6.019465798333 0 0 0
20 1 2.26936048991 1.511660948117 4.001215860833 0 0 0
119 1 2.2693605418049363 4.04197018823412 8.037715735833 0 0 0
162 1 4.599834824853 3.240284549262 8.037715735833 0 0 0
164 1 3.434597727296 2.374575787602 1.982965923333 0 0 0
165 1 1.104123392353 3.240284549262 1.982965923333 0 0 0
171 1 4.599834824853 0.978309288037 4.001215860833 0 0 0
207 1 4.599834824853 3.240284549262 4.001215860833 0 0 0
209 1 3.434597727296 2.374575787602 6.019465798333 0 0 0
210 1 1.104123392353 3.240284549262 6.019465798333 0 0 0
211 1 2.269360541804936 4.041970188234137 4.0012158608330015 0 0 0
227 1 4.599834824853 0.978309288037 8.037715735833 0 0 0
230 1 1.104123392353 0.978309288037 1.982965923333 0 0 0
231 1 2.26936048991 1.511660948117 8.037715735833 0 0 0
16 1 8.095546257353 3.240284549262 6.019465798333 0 0 0
21 1 9.260783406804942 4.041970188234127 4.001215860832996 0 0 0
25 1 6.930309159796 2.374575787602 4.001215860833 0 0 0
124 1 8.095546257353 3.240284549262 1.982965923333 0 0 0
125 1 9.260783406804943 4.041970188234137 8.037715735833 0 0 0
159 1 8.095546257353 0.978309288037 6.019465798333 0 0 0
160 1 9.26078335491 1.511660948117 4.001215860833 0 0 0
163 1 5.765071974304942 4.041970188234125 1.9829659233329981 0 0 0
168 1 8.095546257353 0.978309288037 1.982965923333 0 0 0
169 1 9.26078335491 1.511660948117 8.037715735833 0 0 0
172 1 5.76507192241 1.511660948117 6.019465798333 0 0 0
206 1 6.930309159796 2.374575787602 8.037715735833 0 0 0
208 1 5.765071974304942 4.041970188234133 6.0194657983330115 0 0 0
228 1 5.76507192241 1.511660948117 1.982965923333 0 0 0
1 1 11.591257689853 3.240284549262 4.001215860833 0 0 0
7 1 12.756494839304935 4.041970188234122 6.019465798333001 0 0 0
11 1 10.426020592296 2.374575787602 6.019465798333 0 0 0
33 1 11.591257689853 0.978309288037 4.001215860833 0 0 0
36 1 12.75649478741 1.511660948117 6.019465798333 0 0 0
120 1 13.921732024796 2.374575787602 8.037715735833 0 0 0
121 1 11.591257689853 3.240284549262 8.037715735833 0 0 0
122 1 12.756494839304944 4.0419701882341235 1.9829659233330048 0 0 0
123 1 10.426020592296 2.374575787602 1.982965923333 0 0 0
166 1 12.75649478741 1.511660948117 1.982965923333 0 0 0
213 1 13.921732024796 2.374575787602 4.001215860833 0 0 0
233 1 11.591257689853 0.978309288037 8.037715735833 0 0 0
12 1 3.434597686253838 4.874055731787458 1.982965923333006 0 0 0
19 1 1.1041233979848109 5.678968113064335 1.9829659233330086 0 0 0
28 1 2.269360542748935 6.495780941393658 8.037715735833 0 0 0
31 1 4.599834830484816 5.678968113064351 8.037715735833004 0 0 0
72 1 4.599834830484792 5.6789681130643395 4.001215860833 0 0 0
74 1 3.43459768625384 4.874055731787455 6.019465798332993 0 0 0
75 1 1.1041233979848064 5.678968113064341 6.019465798332986 0 0 0
76 1 2.2693605427489247 6.495780941393637 4.001215860833001 0 0 0
106 1 4.5998348293719635 8.124750069324278 4.001215860833007 0 0 0
108 1 3.4345976858342886 7.316091995367905 6.019465798333003 0 0 0
109 1 1.1041233968719628 8.124750069324275 6.019465798333005 0 0 0
110 1 2.2693605403326544 8.934207160053703 4.001215860832998 0 0 0
201 1 4.599834829371982 8.12475006932426 8.037715735832998 0 0 0
203 1 3.434597685834281 7.3160919953679 1.9829659233329988 0 0 0
204 1 1.1041233968719797 8.124750069324282 1.982965923332996 0 0 0
205 1 2.2693605403326393 8.934207160053692 8.037715735832995 0 0 0
5 1 5.765071975248923 6.495780941393637 1.9829659233329835 0 0 0
69 1 8.095546262984813 5.67896811306434 1.9829659233329986 0 0 0
70 1 9.26078340774894 6.4957809413936305 8.037715735833 0 0 0
71 1 6.930309118753823 4.874055731787455 8.037715735832995 0 0 0
73 1 5.765071975248933 6.495780941393644 6.01946579833301 0 0 0
81 1 8.0955462629848 5.678968113064339 6.019465798332999 0 0 0
107 1 5.765071972832648 8.934207160053695 6.0194657983329956 0 0 0
130 1 8.09554626187197 8.12475006932427 1.982965923333003 0 0 0
131 1 9.260783405332656 8.934207160053713 8.037715735833 0 0 0
132 1 6.930309118334266 7.316091995367905 8.037715735832998 0 0 0
188 1 8.095546261871961 8.124750069324275 6.019465798332988 0 0 0
189 1 9.260783405332647 8.934207160053692 4.0012158608330095 0 0 0
190 1 6.930309118334298 7.316091995367909 4.001215860833009 0 0 0
199 1 9.260783407748924 6.495780941393653 4.001215860832997 0 0 0
200 1 6.93030911875384 4.874055731787453 4.001215860833002 0 0 0
202 1 5.765071972832655 8.934207160053711 1.9829659233329988 0 0 0
32 1 13.921731983753832 4.8740557317874424 8.037715735833 0 0 0
35 1 11.591257695484797 5.678968113064339 8.037715735832995 0 0 0
38 1 12.75649484024893 6.4957809413936305 1.9829659233330097 0 0 0
68 1 10.42602055125382 4.874055731787451 1.9829659233329942 0 0 0
77 1 13.921731983753837 4.874055731787462 4.001215860832993 0 0 0
78 1 11.591257695484812 5.678968113064332 4.001215860833002 0 0 0
79 1 12.756494840248928 6.4957809413936545 6.0194657983329956 0 0 0
80 1 10.42602055125383 4.874055731787453 6.019465798333002 0 0 0
111 1 13.921731983334283 7.316091995367894 4.001215860833005 0 0 0
112 1 11.591257694371972 8.124750069324271 4.001215860833002 0 0 0
126 1 13.921731983334286 7.316091995367917 8.037715735832993 0 0 0
127 1 11.591257694371976 8.124750069324277 8.037715735832993 0 0 0
128 1 12.756494837832658 8.934207160053711 1.9829659233329984 0 0 0
129 1 10.426020550834277 7.316091995367898 1.9829659233330053 0 0 0
186 1 12.756494837832653 8.934207160053687 6.019465798333002 0 0 0
187 1 10.426020550834291 7.316091995367902 6.019465798333004 0 0 0
51 1 4.5998348261966555 10.661904922236861 4.001215860832996 0 0 0
53 1 3.43459768401831 9.763921763852508 6.019465798333004 0 0 0
54 1 1.1041233936966586 10.661904922236857 6.0194657983329956 0 0 0
64 1 3.4345976796617763 12.09366491274481 6.019465798333008 0 0 0
152 1 3.434597684018309 9.763921763852512 1.982965923333004 0 0 0
153 1 1.104123393696653 10.661904922236857 1.9829659233330035 0 0 0
154 1 2.269360537489031 11.358386694475637 8.037715735832997 0 0 0
177 1 2.2693605374890335 11.358386694475637 4.001215860832998 0 0 0
191 1 4.5998348261966555 10.661904922236861 8.037715735832998 0 0 0
195 1 3.4345976796617714 12.093664912744815 1.982965923332997 0 0 0
3 1 6.930309116518312 9.76392176385251 4.0012158608330015 0 0 0
40 1 6.9303091121617735 12.09366491274481 8.037715735833004 0 0 0
48 1 8.09554625869665 10.66190492223686 1.9829659233329961 0 0 0
49 1 9.260783402489038 11.358386694475628 8.037715735832998 0 0 0
50 1 6.930309116518318 9.763921763852506 8.037715735833004 0 0 0
52 1 5.765071969989035 11.358386694475634 6.019465798333006 0 0 0
98 1 6.930309112161776 12.093664912744808 4.001215860833002 0 0 0
184 1 8.095546258696663 10.661904922236861 6.019465798333001 0 0 0
185 1 9.260783402489043 11.358386694475637 4.001215860833011 0 0 0
192 1 5.765071969989042 11.358386694475623 1.9829659233329966 0 0 0
34 1 10.426020544661778 12.093664912744806 1.9829659233329955 0 0 0
66 1 13.92173197716177 12.093664912744801 4.001215860833008 0 0 0
96 1 10.426020544661773 12.093664912744797 6.019465798332997 0 0 0
155 1 13.921731981518311 9.763921763852505 8.037715735833002 0 0 0
156 1 11.591257691196649 10.661904922236852 8.037715735833002 0 0 0
157 1 12.75649483498904 11.358386694475632 1.9829659233330006 0 0 0
158 1 10.42602054901831 9.763921763852515 1.9829659233329877 0 0 0
179 1 13.921731981518308 9.763921763852517 4.001215860832998 0 0 0
181 1 11.59125769119666 10.66190492223686 4.001215860833005 0 0 0
182 1 12.756494834989036 11.358386694475637 6.019465798332991 0 0 0
183 1 10.426020549018306 9.763921763852519 6.019465798333003 0 0 0
197 1 13.921731977161771 12.093664912744812 8.037715735832997 0 0 0
63 1 2.2693605340335856 17.326667706783812 4.001215860833001 0 0 0
65 1 4.599834822536758 18.06658433686291 4.001215860832997 0 0 0
67 1 1.1041233900367606 18.066584336862906 6.019465798333008 0 0 0
90 1 3.434597678368239 18.75614481674218 1.9829659233330075 0 0 0
175 1 3.434597678368241 18.756144816742186 6.019465798332999 0 0 0
194 1 2.2693605340335887 17.326667706783816 8.037715735833 0 0 0
196 1 4.59983482253676 18.066584336862906 8.037715735832997 0 0 0
198 1 1.1041233900367555 18.0665843368629 1.982965923332999 0 0 0
24 1 9.26078339903358 17.326667706783816 8.037715735833 0 0 0
41 1 8.095546255036762 18.066584336862903 1.9829659233330061 0 0 0
46 1 6.930309110868239 18.756144816742186 4.001215860833003 0 0 0
62 1 5.7650719665335854 17.32666770678382 6.019465798333003 0 0 0
95 1 9.260783399033581 17.32666770678382 4.001215860832994 0 0 0
99 1 8.09554625503676 18.066584336862913 6.0194657983330035 0 0 0
104 1 6.93030911086824 18.756144816742193 8.03771573583299 0 0 0
193 1 5.765071966533577 17.32666770678381 1.9829659233329995 0 0 0
9 1 12.756494831533578 17.326667706783816 1.9829659233330006 0 0 0
39 1 11.591257687536752 18.066584336862903 8.037715735832998 0 0 0
44 1 10.426020543368233 18.756144816742186 6.019465798333001 0 0 0
92 1 13.921731975868248 18.75614481674218 8.037715735833 0 0 0
94 1 12.756494831533578 17.326667706783812 6.019465798333 0 0 0
97 1 11.591257687536755 18.06658433686291 4.001215860832999 0 0 0
102 1 10.426020543368232 18.756144816742182 1.9829659233330017 0 0 0
178 1 13.921731975868239 18.75614481674218 4.001215860832998 0 0 0
89 1 2.2693605343426246 19.657957933457837 8.03771573583299 0 0 0
91 1 4.599834822558825 20.489423370027342 8.037715735832997 0 0 0
93 1 1.1041233900588139 20.48942337002734 1.9829659233330024 0 0 0
114 1 2.2693605364129414 22.109734154411974 8.03771573583299 0 0 0
115 1 3.4345976790551735 21.2958400536965 1.982965923333001 0 0 0
116 1 4.599834824685306 22.92386053844013 8.037715735832991 0 0 0
118 1 1.1041233921852935 22.923860538440124 1.9829659233330026 0 0 0
134 1 2.2693605364129428 22.109734154411985 4.001215860833 0 0 0
135 1 3.4345976790551607 21.295840053696487 6.019465798333009 0 0 0
136 1 4.599834824685304 22.923860538440138 4.001215860832998 0 0 0
138 1 1.1041233921853084 22.923860538440127 6.019465798333008 0 0 0
174 1 2.2693605343426264 19.65795793345783 4.001215860833003 0 0 0
176 1 4.59983482255883 20.48942337002732 4.001215860832993 0 0 0
180 1 1.1041233900588312 20.489423370027332 6.0194657983330035 0 0 0
222 1 3.4345976816127646 23.746328663286842 1.9829659233330033 0 0 0
224 1 3.4345976816127597 23.746328663286846 6.019465798333002 0 0 0
23 1 6.930309114112759 23.746328663286842 4.001215860833009 0 0 0
43 1 9.260783399342632 19.657957933457823 4.001215860833002 0 0 0
47 1 8.09554625505882 20.489423370027325 6.0194657983330035 0 0 0
83 1 9.26078340141294 22.109734154411992 4.001215860832991 0 0 0
86 1 6.930309111555176 21.29584005369649 4.001215860832993 0 0 0
87 1 8.095546257185283 22.923860538440135 6.019465798333001 0 0 0
88 1 5.76507196684263 19.65795793345784 1.9829659233330053 0 0 0
101 1 9.260783399342635 19.657957933457837 8.037715735832997 0 0 0
105 1 8.095546255058824 20.489423370027335 1.982965923333006 0 0 0
113 1 5.765071968912932 22.109734154411974 1.9829659233329997 0 0 0
133 1 5.765071968912952 22.109734154412003 6.019465798333014 0 0 0
147 1 9.260783401412944 22.109734154411978 8.037715735833011 0 0 0
150 1 6.930309111555169 21.295840053696494 8.03771573583299 0 0 0
151 1 8.095546257185315 22.92386053844012 1.9829659233330021 0 0 0
173 1 5.765071966842634 19.65795793345783 6.019465798333002 0 0 0
217 1 6.930309114112758 23.746328663286842 8.037715735832988 0 0 0
15 1 10.426020546612765 23.746328663286842 6.019465798333003 0 0 0
42 1 12.756494831842621 19.65795793345783 6.019465798332998 0 0 0
45 1 11.591257687558823 20.48942337002733 4.001215860833008 0 0 0
56 1 13.921731979112769 23.746328663286842 8.037715735832993 0 0 0
60 1 10.426020546612753 23.74632866328684 1.9829659233330048 0 0 0
82 1 12.756494833912942 22.109734154411985 6.0194657983329956 0 0 0
84 1 10.426020544055163 21.29584005369649 6.019465798333004 0 0 0
85 1 11.591257689685294 22.923860538440127 4.0012158608330015 0 0 0
100 1 12.75649483184264 19.65795793345783 1.9829659233329993 0 0 0
103 1 11.591257687558816 20.489423370027332 8.037715735832997 0 0 0
117 1 13.921731976555183 21.295840053696494 8.037715735833004 0 0 0
137 1 13.921731976555169 21.29584005369649 4.00121586083299 0 0 0
146 1 12.75649483391295 22.109734154411978 1.9829659233330064 0 0 0
148 1 10.42602054405516 21.29584005369651 1.9829659233329917 0 0 0
149 1 11.591257689685294 22.923860538440124 8.037715735832995 0 0 0
226 1 13.921731979112755 23.74632866328684 4.001215860832999 0 0 0
2 1 1.104123392353 25.362058453958 6.019465798333 0 0 0
4 1 3.434597727296 28.71037779161 6.019465798333 0 0 0
13 1 2.26936048991 27.090681807918 8.037715735833 0 0 0
17 1 3.434597727296 26.227767215617 1.982965923333 0 0 0
22 1 4.599834824853 27.624033467998 8.037715735833 0 0 0
30 1 1.104123392353 27.624033467998 1.982965923333 0 0 0
55 1 4.599834824853 25.362058453958 8.037715735833 0 0 0
57 1 1.104123392353 25.362058453958 1.982965923333 0 0 0
139 1 2.26936048991 27.090681807918 4.001215860833 0 0 0
140 1 3.434597727296 26.227767215617 6.019465798333 0 0 0
141 1 4.599834824853 27.624033467998 4.001215860833 0 0 0
143 1 1.104123392353 27.624033467998 6.019465798333 0 0 0
220 1 2.2693605390678284 24.55801311444091 8.03771573583299 0 0 0
223 1 2.2693605390678346 24.558013114440914 4.001215860833006 0 0 0
225 1 4.599834824853 25.362058453958 4.001215860833 0 0 0
229 1 3.434597727296 28.71037779161 1.982965923333 0 0 0
8 1 5.76507192241 27.090681807918 1.982965923333 0 0 0
10 1 9.260783404067832 24.558013114440914 4.001215860832999 0 0 0
27 1 8.095546257353 25.362058453958 6.019465798333 0 0 0
59 1 9.260783404067826 24.558013114440918 8.037715735832998 0 0 0
145 1 9.26078335491 27.090681807918 4.001215860833 0 0 0
161 1 6.930309159796 28.71037779161 4.001215860833 0 0 0
170 1 6.930309159796 28.71037779161 8.037715735833 0 0 0
215 1 6.930309159796 26.227767215617 4.001215860833 0 0 0
216 1 8.095546257353 27.624033467998 6.019465798333 0 0 0
218 1 5.765071971567829 24.55801311444092 1.9829659233330001 0 0 0
219 1 8.095546257353 25.362058453958 1.982965923333 0 0 0
221 1 5.765071971567833 24.558013114440904 6.019465798333005 0 0 0
235 1 9.26078335491 27.090681807918 8.037715735833 0 0 0
238 1 6.930309159796 26.227767215617 8.037715735833 0 0 0
239 1 8.095546257353 27.624033467998 1.982965923333 0 0 0
240 1 5.76507192241 27.090681807918 6.019465798333 0 0 0
6 1 12.75649483656783 24.558013114440918 6.019465798333004 0 0 0
18 1 11.591257689853 25.362058453958 4.001215860833 0 0 0
26 1 13.921732024796 26.227767215617 8.037715735833 0 0 0
29 1 13.921732024796 28.71037779161 4.001215860833 0 0 0
37 1 10.426020592296 28.71037779161 6.019465798333 0 0 0
58 1 12.756494836567832 24.558013114440925 1.9829659233329975 0 0 0
61 1 11.591257689853 25.362058453958 8.037715735833 0 0 0
142 1 13.921732024796 26.227767215617 4.001215860833 0 0 0
144 1 12.75649478741 27.090681807918 6.019465798333 0 0 0
167 1 10.426020592296 28.71037779161 1.982965923333 0 0 0
212 1 10.426020592296 26.227767215617 6.019465798333 0 0 0
214 1 11.591257689853 27.624033467998 4.001215860833 0 0 0
232 1 13.921732024796 28.71037779161 8.037715735833 0 0 0
234 1 12.75649478741 27.090681807918 1.982965923333 0 0 0
236 1 10.426020592296 26.227767215617 1.982965923333 0 0 0
237 1 11.591257689853 27.624033467998 8.037715735833 0 0 0

Velocities

14 0 0 0
20 0 0 0
119 0 0 0
162 0 0 0
164 0 0 0
165 0 0 0
171 0 0 0
207 0 0 0
209 0 0 0
210 0 0 0
211 0 0 0
227 0 0 0
230 0 0 0
231 0 0 0
16 0 0 0
21 0 0 0
25 0 0 0
124 0 0 0
125 0 0 0
159 0 0 0
160 0 0 0
163 0 0 0
168 0 0 0
169 0 0 0
172 0 0 0
206 0 0 0
208 0 0 0
228 0 0 0
1 0 0 0
7 0 0 0
11 0 0 0
33 0 0 0
36 0 0 0
120 0 0 0
121 0 0 0
122 0 0 0
123 0 0 0
166 0 0 0
213 0 0 0
233 0 0 0
12 0 0 0
19 0 0 0
28 0 0 0
31 0 0 0
72 0 0 0
74 0 0 0
75 0 0 0
76 0 0 0
106 0 0 0
108 0 0 0
109 0 0 0
110 0 0 0
201 0 0 0
203 0 0 0
204 0 0 0
205 0 0 0
5 0 0 0
69 0 0 0
70 0 0 0
71 0 0 0
73 0 0 0
81 0 0 0
107 0 0 0
130 0 0 0
131 0 0 0
132 0 0 0
188 0 0 0
189 0 0 0
190 0 0 0
199 0 0 0
200 0 0 0
202 0 0 0
32 0 0 0
35 0 0 0
38 0 0 0
68 0 0 0
77 0 0 0
78 0 0 0
79 0 0 0
80 0 0 0
111 0 0 0
112 0 0 0
126 0 0 0
127 0 0 0
128 0 0 0
129 0 0 0
186 0 0 0
187 0 0 0
51 0 0 0
53 0 0 0
54 0 0 0
64 0 0 0
152 0 0 0
153 0 0 0
154 0 0 0
177 0 0 0
191 0 0 0
195 0 0 0
3 0 0 0
40 0 0 0
48 0 0 0
49 0 0 0
50 0 0 0
52 0 0 0
98 0 0 0
184 0 0 0
185 0 0 0
192 0 0 0
34 0 0 0
66 0 0 0
96 0 0 0
155 0 0 0
156 0 0 0
157 0 0 0
158 0 0 0
179 0 0 0
181 0 0 0
182 0 0 0
183 0 0 0
197 0 0 0
63 0 0 0
65 0 0 0
67 0 0 0
90 0 0 0
175 0 0 0
194 0 0 0
196 0 0 0
198 0 0 0
24 0 0 0
41 0 0 0
46 0 0 0
62 0 0 0
95 0 0 0
99 0 0 0
104 0 0 0
193 0 0 0
9 0 0 0
39 0 0 0
44 0 0 0
92 0 0 0
94 0 0 0
97 0 0 0
102 0 0 0
178 0 0 0
89 0 0 0
91 0 0 0
93 0 0 0
114 0 0 0
115 0 0 0
116 0 0 0
118 0 0 0
134 0 0 0
135 0 0 0
136 0 0 0
138 0 0 0
174 0 0 0
176 0 0 0
180 0 0 0
222 0 0 0
224 0 0 0
23 0 0 0
43 0 0 0
47 0 0 0
83 0 0 0
86 0 0 0
87 0 0 0
88 0 0 0
101 0 0 0
105 0 0 0
113 0 0 0
133 0 0 0
147 0 0 0
150 0 0 0
151 0 0 0
173 0 0 0
217 0 0 0
15 0 0 0
42 0 0 0
45 0 0 0
56 0 0 0
60 0 0 0
82 0 0 0
84 0 0 0
85 0 0 0
100 0 0 0
103 0 0 0
117 0 0 0
137 0 0 0
146 0 0 0
148 0 0 0
149 0 0 0
226 0 0 0
2 0 0 0
4 0 0 0
13 0 0 0
17 0 0 0
22 0 0 0
30 0 0 0
55 0 0 0
57 0 0 0
139 0 0 0
140 0 0 0
141 0 0 0
143 0 0 0
220 0 0 0
223 0 0 0
225 0 0 0
229 0 0 0
8 0 0 0
10 0 0 0
27 0 0 0
59 0 0 0
145 0 0 0
161 0 0 0
170 0 0 0
215 0 0 0
216 0 0 0
218 0 0 0
219 0 0 0
221 0 0 0
235 0 0 0
238 0 0 0
239 0 0 0
240 0 0 0
6 0 0 0
18 0 0 0
26 0 0 0
29 0 0 0
37 0 0 0
58 0 0 0
61 0 0 0
142 0 0 0
144 0 0 0
167 0 0 0
212 0 0 0
214 0 0 0
232 0 0 0
234 0 0 0
236 0 0 0
237 0 0 0
