LAMMPS data file via write_data, version 29 Aug 2024, timestep = 8, units = metal

240 atoms
1 atom types

0 13.98284573 xlo xhi
0 29.11841258 ylo yhi
0 8.07299975 zlo zhi

Masses

1 55.8

Atoms # atomic

12 1 3.4345976871183757 4.874842336718635 1.9829659233330093 0 0 0
14 1 1.104123392353 0.978309288037 6.019465798333 0 0 0
20 1 2.26936048991 1.511660948117 4.001215860833 0 0 0
74 1 3.434597687118367 4.874842336718629 6.019465798332994 0 0 0
119 1 2.269360542341181 4.042958738944479 8.037715735832991 0 0 0
162 1 4.599834824853 3.240284549262 8.037715735833 0 0 0
164 1 3.434597727296 2.374575787602 1.982965923333 0 0 0
165 1 1.104123392353 3.240284549262 1.982965923333 0 0 0
171 1 4.599834824853 0.978309288037 4.001215860833 0 0 0
207 1 4.599834824853 3.240284549262 4.001215860833 0 0 0
209 1 3.434597727296 2.374575787602 6.019465798333 0 0 0
210 1 1.104123392353 3.240284549262 6.019465798333 0 0 0
211 1 2.2693605423411847 4.042958738944487 4.0012158608330095 0 0 0
227 1 4.599834824853 0.978309288037 8.037715735833 0 0 0
230 1 1.104123392353 0.978309288037 1.982965923333 0 0 0
231 1 2.26936048991 1.511660948117 8.037715735833 0 0 0
16 1 8.095546257353 3.240284549262 6.019465798333 0 0 0
21 1 9.260783407341174 4.0429587389444865 4.001215860833006 0 0 0
25 1 6.930309159796 2.374575787602 4.001215860833 0 0 0
71 1 6.93030911961837 4.874842336718637 8.03771573583299 0 0 0
124 1 8.095546257353 3.240284549262 1.982965923333 0 0 0
125 1 9.260783407341178 4.042958738944476 8.037715735832988 0 0 0
159 1 8.095546257353 0.978309288037 6.019465798333 0 0 0
160 1 9.26078335491 1.511660948117 4.001215860833 0 0 0
163 1 5.765071974841173 4.042958738944481 1.9829659233330086 0 0 0
168 1 8.095546257353 0.978309288037 1.982965923333 0 0 0
169 1 9.26078335491 1.511660948117 8.037715735833 0 0 0
172 1 5.76507192241 1.511660948117 6.019465798333 0 0 0
200 1 6.9303091196183715 4.874842336718624 4.001215860833004 0 0 0
206 1 6.930309159796 2.374575787602 8.037715735833 0 0 0
208 1 5.765071974841175 4.04295873894448 6.019465798332996 0 0 0
228 1 5.76507192241 1.511660948117 1.982965923333 0 0 0
1 1 11.591257689853 3.240284549262 4.001215860833 0 0 0
7 1 12.756494839841181 4.042958738944468 6.019465798332999 0 0 0
11 1 10.426020592296 2.374575787602 6.019465798333 0 0 0
32 1 13.921731984618367 4.87484233671863 8.037715735833007 0 0 0
33 1 11.591257689853 0.978309288037 4.001215860833 0 0 0
36 1 12.75649478741 1.511660948117 6.019465798333 0 0 0
68 1 10.426020552118368 4.874842336718641 1.9829659233329942 0 0 0
77 1 13.92173198461837 4.874842336718643 4.001215860833 0 0 0
80 1 10.426020552118365 4.874842336718636 6.0194657983329956 0 0 0
120 1 13.921732024796 2.374575787602 8.037715735833 0 0 0
121 1 11.591257689853 3.240284549262 8.037715735833 0 0 0
122 1 12.756494839841181 4.042958738944486 1.9829659233329977 0 0 0
123 1 10.426020592296 2.374575787602 1.982965923333 0 0 0
166 1 12.75649478741 1.511660948117 1.982965923333 0 0 0
213 1 13.921732024796 2.374575787602 4.001215860833 0 0 0
233 1 11.591257689853 0.978309288037 8.037715735833 0 0 0
19 1 1.10412339920341 5.680046223973455 1.982965923333 0 0 0
28 1 2.2693605441454276 6.497499105494972 8.037715735833006 0 0 0
31 1 4.599834831703417 5.680046223973467 8.037715735833 0 0 0
72 1 4.599834831703404 5.680046223973446 4.001215860833008 0 0 0
75 1 1.104123399203412 5.680046223973454 6.019465798332991 0 0 0
76 1 2.26936054414543 6.497499105494957 4.001215860833007 0 0 0
106 1 4.59983483034738 8.1265497681781 4.001215860833008 0 0 0
108 1 3.434597687036383 7.31819313739511 6.019465798332994 0 0 0
109 1 1.1041233978473766 8.126549768178096 6.0194657983329956 0 0 0
110 1 2.2693605411307267 8.93660445891484 4.001215860833011 0 0 0
201 1 4.599834830347379 8.126549768178089 8.037715735832998 0 0 0
203 1 3.4345976870363786 7.318193137395111 1.982965923332996 0 0 0
204 1 1.1041233978473852 8.126549768178101 1.9829659233329868 0 0 0
205 1 2.269360541130723 8.936604458914832 8.03771573583301 0 0 0
5 1 5.765071976645428 6.497499105494962 1.9829659233329882 0 0 0
69 1 8.09554626420341 5.680046223973452 1.9829659233330024 0 0 0
70 1 9.260783409145441 6.497499105494963 8.037715735832991 0 0 0
73 1 5.765071976645423 6.497499105494973 6.0194657983330035 0 0 0
81 1 8.095546264203414 5.6800462239734415 6.019465798333008 0 0 0
107 1 5.765071973630718 8.936604458914829 6.019465798332999 0 0 0
130 1 8.09554626284737 8.126549768178103 1.9829659233330124 0 0 0
131 1 9.26078340613073 8.93660445891484 8.037715735832988 0 0 0
132 1 6.930309119536358 7.3181931373951015 8.037715735832997 0 0 0
188 1 8.095546262847378 8.126549768178107 6.019465798332993 0 0 0
189 1 9.260783406130704 8.936604458914838 4.0012158608330015 0 0 0
190 1 6.930309119536379 7.3181931373951254 4.001215860833003 0 0 0
199 1 9.260783409145429 6.497499105494956 4.001215860832998 0 0 0
202 1 5.765071973630724 8.936604458914836 1.9829659233330035 0 0 0
35 1 11.591257696703408 5.680046223973463 8.037715735833006 0 0 0
38 1 12.756494841645427 6.497499105494944 1.982965923332989 0 0 0
78 1 11.59125769670341 5.680046223973449 4.001215860833009 0 0 0
79 1 12.756494841645432 6.497499105494978 6.019465798332985 0 0 0
111 1 13.921731984536379 7.318193137395103 4.001215860833025 0 0 0
112 1 11.59125769534738 8.126549768178096 4.0012158608330095 0 0 0
126 1 13.921731984536386 7.318193137395108 8.037715735832998 0 0 0
127 1 11.591257695347366 8.126549768178096 8.03771573583299 0 0 0
128 1 12.756494838630722 8.936604458914855 1.9829659233329953 0 0 0
129 1 10.426020552036382 7.318193137395102 1.9829659233330026 0 0 0
186 1 12.756494838630719 8.93660445891483 6.019465798332996 0 0 0
187 1 10.426020552036391 7.318193137395119 6.0194657983330035 0 0 0
51 1 4.599834826033594 10.665533080992304 4.001215860832999 0 0 0
53 1 3.4345976845001864 9.767199727504908 6.019465798332989 0 0 0
54 1 1.1041233935336 10.6655330809923 6.019465798332997 0 0 0
64 1 3.4345976784536334 12.1029561802847 6.019465798332995 0 0 0
152 1 3.4345976845001847 9.767199727504913 1.9829659233329937 0 0 0
153 1 1.1041233935336006 10.665533080992304 1.982965923332997 0 0 0
154 1 2.269360537105265 11.362829611660946 8.037715735833006 0 0 0
177 1 2.2693605371052694 11.362829611660947 4.001215860833004 0 0 0
191 1 4.599834826033606 10.665533080992306 8.037715735833007 0 0 0
195 1 3.4345976784536325 12.102956180284696 1.9829659233330006 0 0 0
3 1 6.930309117000191 9.767199727504897 4.001215860833001 0 0 0
40 1 6.930309110953633 12.102956180284698 8.037715735833 0 0 0
48 1 8.095546258533599 10.665533080992306 1.982965923332997 0 0 0
49 1 9.260783402105268 11.362829611660942 8.037715735833 0 0 0
50 1 6.930309117000182 9.76719972750493 8.037715735832997 0 0 0
52 1 5.765071969605257 11.362829611660949 6.0194657983330035 0 0 0
98 1 6.930309110953642 12.102956180284702 4.001215860832997 0 0 0
184 1 8.095546258533604 10.665533080992306 6.019465798332999 0 0 0
185 1 9.260783402105261 11.362829611660949 4.001215860833006 0 0 0
192 1 5.765071969605259 11.362829611660946 1.9829659233329946 0 0 0
34 1 10.426020543453644 12.102956180284703 1.9829659233329986 0 0 0
66 1 13.921731975953636 12.102956180284703 4.001215860833 0 0 0
96 1 10.42602054345364 12.102956180284712 6.019465798333001 0 0 0
155 1 13.921731982000185 9.767199727504916 8.037715735833004 0 0 0
156 1 11.591257691033599 10.665533080992304 8.037715735833007 0 0 0
157 1 12.75649483460526 11.362829611660944 1.9829659233330008 0 0 0
158 1 10.426020549500187 9.767199727504916 1.9829659233329888 0 0 0
179 1 13.921731982000182 9.767199727504911 4.0012158608330015 0 0 0
181 1 11.5912576910336 10.665533080992308 4.001215860832999 0 0 0
182 1 12.756494834605265 11.362829611660956 6.019465798333005 0 0 0
183 1 10.426020549500175 9.767199727504906 6.019465798333004 0 0 0
197 1 13.921731975953632 12.102956180284709 8.037715735833006 0 0 0
63 1 2.2693605348095454 17.61758934568745 4.001215860833004 0 0 0
65 1 4.599834823186811 18.359608191002415 4.001215860832994 0 0 0
67 1 1.1041233906868293 18.35960819100242 6.019465798332989 0 0 0
90 1 3.434597678827712 19.05104583319674 1.9829659233330066 0 0 0
175 1 3.4345976788277035 19.051045833196728 6.019465798332986 0 0 0
194 1 2.2693605348095574 17.617589345687442 8.037715735832998 0 0 0
196 1 4.59983482318683 18.359608191002412 8.037715735833004 0 0 0
198 1 1.104123390686818 18.359608191002415 1.9829659233330013 0 0 0
24 1 9.260783399809542 17.617589345687446 8.037715735833004 0 0 0
41 1 8.095546255686818 18.35960819100241 1.9829659233330015 0 0 0
46 1 6.930309111327712 19.051045833196735 4.00121586083301 0 0 0
62 1 5.765071967309553 17.617589345687453 6.019465798332992 0 0 0
95 1 9.260783399809547 17.61758934568745 4.0012158608330015 0 0 0
99 1 8.095546255686815 18.359608191002415 6.019465798332994 0 0 0
104 1 6.930309111327713 19.05104583319674 8.037715735832997 0 0 0
193 1 5.765071967309547 17.617589345687453 1.9829659233330015 0 0 0
9 1 12.756494832309546 17.617589345687456 1.9829659233329926 0 0 0
39 1 11.591257688186813 18.359608191002412 8.037715735833011 0 0 0
44 1 10.426020543827706 19.05104583319673 6.019465798332995 0 0 0
92 1 13.921731976327713 19.051045833196735 8.037715735833002 0 0 0
94 1 12.756494832309556 17.61758934568744 6.019465798332997 0 0 0
97 1 11.591257688186802 18.359608191002412 4.001215860833004 0 0 0
102 1 10.426020543827718 19.05104583319674 1.9829659233329997 0 0 0
178 1 13.921731976327713 19.05104583319674 4.001215860833009 0 0 0
89 1 2.2693605346831407 19.954546194452835 8.037715735833011 0 0 0
91 1 4.599834822504454 20.785763033542956 8.03771573583302 0 0 0
93 1 1.1041233900044576 20.785763033542942 1.982965923332994 0 0 0
114 1 2.2693605364748635 22.40687110428507 8.037715735833013 0 0 0
115 1 3.4345976790290997 21.593254657165986 1.9829659233329877 0 0 0
116 1 4.599834824502356 23.221958980388344 8.03771573583301 0 0 0
118 1 1.104123392002347 23.22195898038836 1.9829659233329946 0 0 0
134 1 2.26936053647486 22.406871104285074 4.001215860833015 0 0 0
135 1 3.434597679029096 21.593254657165996 6.019465798332983 0 0 0
136 1 4.599834824502344 23.221958980388344 4.0012158608330095 0 0 0
138 1 1.1041233920023585 23.22195898038836 6.0194657983329805 0 0 0
174 1 2.2693605346831336 19.95454619445282 4.001215860833002 0 0 0
176 1 4.599834822504447 20.785763033542956 4.001215860833006 0 0 0
180 1 1.1041233900044507 20.785763033542942 6.019465798332988 0 0 0
222 1 3.434597681264805 24.044474756284572 1.9829659233329966 0 0 0
224 1 3.4345976812648003 24.04447475628458 6.019465798332994 0 0 0
23 1 6.930309113764815 24.04447475628458 4.00121586083301 0 0 0
43 1 9.260783399683143 19.95454619445281 4.001215860833004 0 0 0
47 1 8.095546255004441 20.785763033542942 6.019465798332997 0 0 0
83 1 9.260783401474853 22.406871104285088 4.001215860832999 0 0 0
86 1 6.930309111529108 21.593254657165986 4.001215860833004 0 0 0
87 1 8.095546257002345 23.221958980388365 6.019465798332987 0 0 0
88 1 5.765071967183139 19.95454619445283 1.982965923332997 0 0 0
101 1 9.260783399683136 19.95454619445283 8.037715735833013 0 0 0
105 1 8.095546255004447 20.785763033542963 1.9829659233329926 0 0 0
113 1 5.765071968974858 22.40687110428508 1.9829659233329902 0 0 0
133 1 5.765071968974863 22.40687110428507 6.019465798332994 0 0 0
147 1 9.260783401474862 22.40687110428507 8.037715735833013 0 0 0
150 1 6.930309111529098 21.59325465716598 8.037715735833006 0 0 0
151 1 8.095546257002365 23.221958980388347 1.9829659233329997 0 0 0
173 1 5.765071967183151 19.954546194452835 6.0194657983329956 0 0 0
217 1 6.930309113764797 24.044474756284583 8.037715735832998 0 0 0
15 1 10.4260205462648 24.04447475628458 6.019465798332997 0 0 0
42 1 12.756494832183149 19.95454619445283 6.01946579833299 0 0 0
45 1 11.591257687504458 20.785763033542946 4.001215860833002 0 0 0
56 1 13.921731978764807 24.044474756284583 8.037715735833014 0 0 0
60 1 10.426020546264798 24.044474756284576 1.9829659233329973 0 0 0
82 1 12.756494833974852 22.40687110428508 6.01946579833299 0 0 0
84 1 10.426020544029104 21.593254657165986 6.019465798332997 0 0 0
85 1 11.59125768950236 23.22195898038835 4.001215860833003 0 0 0
100 1 12.756494832183138 19.954546194452824 1.9829659233329986 0 0 0
103 1 11.591257687504447 20.78576303354296 8.037715735833002 0 0 0
117 1 13.921731976529093 21.593254657165986 8.037715735833014 0 0 0
137 1 13.921731976529086 21.59325465716599 4.001215860833004 0 0 0
146 1 12.756494833974871 22.406871104285074 1.9829659233329993 0 0 0
148 1 10.426020544029088 21.59325465716598 1.9829659233329966 0 0 0
149 1 11.591257689502347 23.22195898038834 8.037715735833004 0 0 0
226 1 13.92173197876481 24.044474756284576 4.001215860833008 0 0 0
2 1 1.104123392353 25.662058453958 6.019465798333 0 0 0
4 1 3.434597727296 29.01037779161 6.019465798333 0 0 0
13 1 2.26936048991 27.390681807918 8.037715735833 0 0 0
17 1 3.434597727296 26.527767215617 1.982965923333 0 0 0
22 1 4.599834824853 27.924033467998 8.037715735833 0 0 0
30 1 1.104123392353 27.924033467998 1.982965923333 0 0 0
55 1 4.599834824853 25.662058453958 8.037715735833 0 0 0
57 1 1.104123392353 25.662058453958 1.982965923333 0 0 0
139 1 2.26936048991 27.390681807918 4.001215860833 0 0 0
140 1 3.434597727296 26.527767215617 6.019465798333 0 0 0
141 1 4.599834824853 27.924033467998 4.001215860833 0 0 0
143 1 1.104123392353 27.924033467998 6.019465798333 0 0 0
220 1 2.2693605388290785 24.856427008960363 8.037715735832998 0 0 0
223 1 2.2693605388290767 24.856427008960367 4.001215860833008 0 0 0
225 1 4.599834824853 25.662058453958 4.001215860833 0 0 0
229 1 3.434597727296 29.01037779161 1.982965923333 0 0 0
8 1 5.76507192241 27.390681807918 1.982965923333 0 0 0
10 1 9.260783403829079 24.856427008960353 4.001215860833002 0 0 0
27 1 8.095546257353 25.662058453958 6.019465798333 0 0 0
59 1 9.260783403829082 24.856427008960374 8.037715735832998 0 0 0
145 1 9.26078335491 27.390681807918 4.001215860833 0 0 0
161 1 6.930309159796 29.01037779161 4.001215860833 0 0 0
170 1 6.930309159796 29.01037779161 8.037715735833 0 0 0
215 1 6.930309159796 26.527767215617 4.001215860833 0 0 0
216 1 8.095546257353 27.924033467998 6.019465798333 0 0 0
218 1 5.765071971329079 24.856427008960367 1.9829659233329897 0 0 0
219 1 8.095546257353 25.662058453958 1.982965923333 0 0 0
221 1 5.765071971329084 24.856427008960367 6.019465798333004 0 0 0
235 1 9.26078335491 27.390681807918 8.037715735833 0 0 0
238 1 6.930309159796 26.527767215617 8.037715735833 0 0 0
239 1 8.095546257353 27.924033467998 1.982965923333 0 0 0
240 1 5.76507192241 27.390681807918 6.019465798333 0 0 0
6 1 12.756494836329079 24.856427008960367 6.019465798332992 0 0 0
18 1 11.591257689853 25.662058453958 4.001215860833 0 0 0
26 1 13.921732024796 26.527767215617 8.037715735833 0 0 0
29 1 13.921732024796 29.01037779161 4.001215860833 0 0 0
37 1 10.426020592296 29.01037779161 6.019465798333 0 0 0
58 1 12.756494836329075 24.856427008960374 1.9829659233329964 0 0 0
61 1 11.591257689853 25.662058453958 8.037715735833 0 0 0
142 1 13.921732024796 26.527767215617 4.001215860833 0 0 0
144 1 12.75649478741 27.390681807918 6.019465798333 0 0 0
167 1 10.426020592296 29.01037779161 1.982965923333 0 0 0
212 1 10.426020592296 26.527767215617 6.019465798333 0 0 0
214 1 11.591257689853 27.924033467998 4.001215860833 0 0 0
232 1 13.921732024796 29.01037779161 8.037715735833 0 0 0
234 1 12.75649478741 27.390681807918 1.982965923333 0 0 0
236 1 10.426020592296 26.527767215617 1.982965923333 0 0 0
237 1 11.591257689853 27.924033467998 8.037715735833 0 0 0

Velocities

12 0 0 0
14 0 0 0
20 0 0 0
74 0 0 0
119 0 0 0
162 0 0 0
164 0 0 0
165 0 0 0
171 0 0 0
207 0 0 0
209 0 0 0
210 0 0 0
211 0 0 0
227 0 0 0
230 0 0 0
231 0 0 0
16 0 0 0
21 0 0 0
25 0 0 0
71 0 0 0
124 0 0 0
125 0 0 0
159 0 0 0
160 0 0 0
163 0 0 0
168 0 0 0
169 0 0 0
172 0 0 0
200 0 0 0
206 0 0 0
208 0 0 0
228 0 0 0
1 0 0 0
7 0 0 0
11 0 0 0
32 0 0 0
33 0 0 0
36 0 0 0
68 0 0 0
77 0 0 0
80 0 0 0
120 0 0 0
121 0 0 0
122 0 0 0
123 0 0 0
166 0 0 0
213 0 0 0
233 0 0 0
19 0 0 0
28 0 0 0
31 0 0 0
72 0 0 0
75 0 0 0
76 0 0 0
106 0 0 0
108 0 0 0
109 0 0 0
110 0 0 0
201 0 0 0
203 0 0 0
204 0 0 0
205 0 0 0
5 0 0 0
69 0 0 0
70 0 0 0
73 0 0 0
81 0 0 0
107 0 0 0
130 0 0 0
131 0 0 0
132 0 0 0
188 0 0 0
189 0 0 0
190 0 0 0
199 0 0 0
202 0 0 0
35 0 0 0
38 0 0 0
78 0 0 0
79 0 0 0
111 0 0 0
112 0 0 0
126 0 0 0
127 0 0 0
128 0 0 0
129 0 0 0
186 0 0 0
187 0 0 0
51 0 0 0
53 0 0 0
54 0 0 0
64 0 0 0
152 0 0 0
153 0 0 0
154 0 0 0
177 0 0 0
191 0 0 0
195 0 0 0
3 0 0 0
40 0 0 0
48 0 0 0
49 0 0 0
50 0 0 0
52 0 0 0
98 0 0 0
184 0 0 0
185 0 0 0
192 0 0 0
34 0 0 0
66 0 0 0
96 0 0 0
155 0 0 0
156 0 0 0
157 0 0 0
158 0 0 0
179 0 0 0
181 0 0 0
182 0 0 0
183 0 0 0
197 0 0 0
63 0 0 0
65 0 0 0
67 0 0 0
90 0 0 0
175 0 0 0
194 0 0 0
196 0 0 0
198 0 0 0
24 0 0 0
41 0 0 0
46 0 0 0
62 0 0 0
95 0 0 0
99 0 0 0
104 0 0 0
193 0 0 0
9 0 0 0
39 0 0 0
44 0 0 0
92 0 0 0
94 0 0 0
97 0 0 0
102 0 0 0
178 0 0 0
89 0 0 0
91 0 0 0
93 0 0 0
114 0 0 0
115 0 0 0
116 0 0 0
118 0 0 0
134 0 0 0
135 0 0 0
136 0 0 0
138 0 0 0
174 0 0 0
176 0 0 0
180 0 0 0
222 0 0 0
224 0 0 0
23 0 0 0
43 0 0 0
47 0 0 0
83 0 0 0
86 0 0 0
87 0 0 0
88 0 0 0
101 0 0 0
105 0 0 0
113 0 0 0
133 0 0 0
147 0 0 0
150 0 0 0
151 0 0 0
173 0 0 0
217 0 0 0
15 0 0 0
42 0 0 0
45 0 0 0
56 0 0 0
60 0 0 0
82 0 0 0
84 0 0 0
85 0 0 0
100 0 0 0
103 0 0 0
117 0 0 0
137 0 0 0
146 0 0 0
148 0 0 0
149 0 0 0
226 0 0 0
2 0 0 0
4 0 0 0
13 0 0 0
17 0 0 0
22 0 0 0
30 0 0 0
55 0 0 0
57 0 0 0
139 0 0 0
140 0 0 0
141 0 0 0
143 0 0 0
220 0 0 0
223 0 0 0
225 0 0 0
229 0 0 0
8 0 0 0
10 0 0 0
27 0 0 0
59 0 0 0
145 0 0 0
161 0 0 0
170 0 0 0
215 0 0 0
216 0 0 0
218 0 0 0
219 0 0 0
221 0 0 0
235 0 0 0
238 0 0 0
239 0 0 0
240 0 0 0
6 0 0 0
18 0 0 0
26 0 0 0
29 0 0 0
37 0 0 0
58 0 0 0
61 0 0 0
142 0 0 0
144 0 0 0
167 0 0 0
212 0 0 0
214 0 0 0
232 0 0 0
234 0 0 0
236 0 0 0
237 0 0 0
