LAMMPS data file via write_data, version 29 Aug 2024, timestep = 21, units = metal

288 atoms
1 atom types

0 11.317147 xlo xhi
0 27.763582 ylo yhi
0 11.317147 zlo zhi

Masses

1 55.8

Atoms # atomic

1 1 0 0 0 0 0 0
2 1 1.414643375 1.414643557616 1.414643375 0 0 0
3 1 0 0 2.82928675 0 0 0
4 1 1.414643375 1.414643557616 4.243930125 0 0 0
9 1 0 2.82928660596 0 0 0 0
10 1 1.4146433749994485 4.421208495796718 1.4146433750010827 0 0 0
11 1 0 2.82928660596 2.82928675 0 0 0
12 1 1.4146433750009222 4.4212084957968445 4.2439301249987 0 0 0
73 1 2.82928675 0 0 0 0 0
74 1 4.243930125 1.414643557616 1.414643375 0 0 0
75 1 2.82928675 0 2.82928675 0 0 0
76 1 4.243930125 1.414643557616 4.243930125 0 0 0
81 1 2.82928675 2.82928660596 0 0 0 0
82 1 4.243930125000673 4.421208495796639 1.414643374999729 0 0 0
83 1 2.82928675 2.82928660596 2.82928675 0 0 0
84 1 4.243930124998991 4.421208495796916 4.243930125000576 0 0 0
145 1 5.6585735 0 0 0 0 0
146 1 7.073216875 1.414643557616 1.414643375 0 0 0
147 1 5.6585735 0 2.82928675 0 0 0
148 1 7.073216875 1.414643557616 4.243930125 0 0 0
153 1 5.6585735 2.82928660596 0 0 0 0
154 1 7.073216874999148 4.421208495796781 1.4146433750009682 0 0 0
155 1 5.6585735 2.82928660596 2.82928675 0 0 0
156 1 7.073216875000942 4.42120849579681 4.243930124998746 0 0 0
217 1 8.48786025 0 0 0 0 0
218 1 9.902503625 1.414643557616 1.414643375 0 0 0
219 1 8.48786025 0 2.82928675 0 0 0
220 1 9.902503625 1.414643557616 4.243930125 0 0 0
225 1 8.48786025 2.82928660596 0 0 0 0
226 1 9.902503625000731 4.421208495796644 1.414643374999433 0 0 0
227 1 8.48786025 2.82928660596 2.82928675 0 0 0
228 1 9.902503624999145 4.421208495797012 4.243930125000705 0 0 0
17 1 11.317146999998599 5.997012389834547 1.0906830993917538e-12 -1 0 0
18 1 1.4146433749984233 7.574978043777885 1.414643375001554 0 0 0
19 1 1.3837819778927951e-12 5.997012389834179 2.829286749999039 0 0 0
20 1 1.4146433750018368 7.574978043778125 4.243930124998269 0 0 0
25 1 11.31714699999753 9.147906542519156 1.5785512715648693e-12 -1 0 0
27 1 2.021494083237485e-12 9.147906542519308 2.8292867499986447 0 0 0
89 1 2.829286750000979 5.997012389834519 11.317146999998416 0 0 -1
90 1 4.243930125001848 7.57497804377794 1.4146433749978229 0 0 0
91 1 2.8292867499985217 5.997012389834073 2.82928675000165 0 0 0
92 1 4.243930124998056 7.574978043777919 4.243930125002555 0 0 0
97 1 2.8292867500021015 9.147906542519198 11.317146999997652 0 0 -1
99 1 2.8292867499975993 9.147906542519204 2.8292867500024497 0 0 0
161 1 5.658573499999258 5.9970123898346195 1.3908874052503961e-12 0 0 0
162 1 7.073216874997682 7.574978043777843 1.4146433750012732 0 0 0
163 1 5.658573500001521 5.997012389834156 2.829286749998625 0 0 0
164 1 7.073216875001798 7.57497804377815 4.2439301249983705 0 0 0
169 1 5.658573499998202 9.147906542519191 1.8029493119501498e-12 0 0 0
171 1 5.658573500002458 9.147906542519243 2.829286749998331 0 0 0
233 1 8.487860250001159 5.997012389834489 11.317146999998236 0 0 -1
234 1 9.902503625002048 7.574978043777957 1.4146433749975718 0 0 0
235 1 8.487860249998576 5.997012389834031 2.829286750001847 0 0 0
236 1 9.902503624998312 7.574978043777937 4.243930125002412 0 0 0
241 1 8.487860250002177 9.147906542519138 11.317146999997235 0 0 -1
243 1 8.487860249997919 9.147906542519324 2.829286750002865 0 0 0
26 1 1.4146433749983833 10.714288977105252 1.4146433750018303 0 0 0
28 1 1.414643375001863 10.714288977104596 4.24393012499842 0 0 0
33 1 11.317146999998332 12.280319873897358 2.0765611452588928e-12 -1 0 0
34 1 1.4146433749992662 13.84657477297798 1.4146433750009157 0 0 0
35 1 1.14861006224917e-12 12.28031987389748 2.8292867499980128 0 0 0
36 1 1.4146433750009284 13.846574772978318 4.243930124999388 0 0 0
98 1 4.243930125001787 10.714288977105308 1.414643374997636 0 0 0
100 1 4.243930124998166 10.714288977104601 4.243930125002375 0 0 0
105 1 2.8292867500015624 12.2803198738973 11.317146999999563 0 0 -1
106 1 4.243930125000763 13.846574772977977 1.414643374999093 0 0 0
107 1 2.829286749998456 12.280319873897476 2.829286750000552 0 0 0
108 1 4.2439301249992525 13.84657477297839 4.2439301250008326 0 0 0
170 1 7.073216874997732 10.714288977105216 1.4146433750015905 0 0 0
172 1 7.073216875001757 10.714288977104626 4.243930124998363 0 0 0
177 1 5.658573499998683 12.280319873897254 2.1749143037441698e-12 0 0 0
178 1 7.073216874998899 13.84657477297799 1.4146433750007985 0 0 0
179 1 5.658573500001632 12.28031987389751 2.8292867499980607 0 0 0
180 1 7.073216875000731 13.846574772978306 4.243930124999028 0 0 0
242 1 9.902503625002103 10.714288977105296 1.4146433749979224 0 0 0
244 1 9.902503624998221 10.714288977104502 4.243930125001697 0 0 0
249 1 8.487860250001416 12.280319873897286 11.317146999999236 0 0 -1
250 1 9.902503625001081 13.846574772977998 1.4146433749993705 0 0 0
251 1 8.48786024999876 12.280319873897543 2.82928675000092 0 0 0
252 1 9.902503624999088 13.84657477297838 4.243930125000348 0 0 0
41 1 11.317146999999414 15.411972953346236 5.897504706808832e-13 -1 0 0
42 1 1.4146433749995626 16.976661022541492 1.4146433750002685 0 0 0
43 1 1.4364030022513215e-14 15.41197295334629 2.8292867499991625 0 0 0
44 1 1.414643375000993 16.976661022542338 4.24393012500015 0 0 0
113 1 2.8292867500004277 15.41197295334629 11.317146999999457 0 0 -1
114 1 4.243930125000511 16.976661022541144 1.4146433750003942 0 0 0
115 1 2.8292867499996843 15.41197295334644 2.8292867500004495 0 0 0
116 1 4.2439301249994275 16.976661022541943 4.243930124999492 0 0 0
185 1 5.658573499999849 15.411972953346224 8.207437451446507e-13 0 0 0
186 1 7.073216874999091 16.976661022541425 1.4146433749999356 0 0 0
187 1 5.658573500000379 15.411972953346398 2.829286749999413 0 0 0
188 1 7.073216875000616 16.976661022542324 4.2439301249997206 0 0 0
257 1 8.4878602500003 15.411972953346313 11.317146999999323 0 0 -1
258 1 9.902503625000843 16.976661022541208 1.4146433750003597 0 0 0
259 1 8.487860249999928 15.411972953346364 2.8292867500007923 0 0 0
260 1 9.902503624998971 16.97666102254201 4.243930124999396 0 0 0
49 1 4.4656015382964646e-13 18.538458028280512 11.317146999999137 0 0 -1
50 1 1.4146433749991698 20.102107452902082 1.4146433749997653 0 0 0
51 1 11.31714699999999 18.538458028280363 2.8292867500003815 -1 0 0
52 1 1.4146433750007825 20.102107452900476 4.243930125000739 0 0 0
57 1 11.317146999999528 21.659281879493324 1.4992451724538114e-12 -1 0 0
59 1 11.31714699999925 21.65928187949342 2.8292867499982477 -1 0 0
121 1 2.829286749999111 18.538458028280356 11.317146999997439 0 0 -1
122 1 4.243930125000916 20.102107452902693 1.414643375000629 0 0 0
123 1 2.829286749999788 18.538458028280253 2.8292867500020913 0 0 0
124 1 4.2439301249996735 20.102107452901084 4.243930124999205 0 0 0
129 1 2.829286750000202 21.659281879493424 4.920508445138694e-13 0 0 0
131 1 2.829286750000678 21.659281879493456 2.8292867499992114 0 0 0
193 1 5.658573500001282 18.538458028280548 11.31714699999932 0 0 -1
194 1 7.073216874998693 20.10210745290208 1.4146433749991614 0 0 0
195 1 5.658573500000082 18.5384580282804 2.829286750000792 0 0 0
196 1 7.073216875000419 20.102107452900476 4.243930125000664 0 0 0
201 1 5.658573500000033 21.65928187949331 1.5294432387236157e-12 0 0 0
203 1 5.658573499999202 21.659281879493342 2.8292867499984977 0 0 0
265 1 8.487860249999152 18.53845802828045 11.31714699999727 0 0 -1
266 1 9.902503625001222 20.102107452902658 1.4146433750002296 0 0 0
267 1 8.487860250000143 18.538458028280157 2.8292867500026193 0 0 0
268 1 9.902503624999124 20.102107452901055 4.243930124999484 0 0 0
273 1 8.487860250000244 21.65928187949339 3.8251646466633195e-13 0 0 0
275 1 8.487860250000876 21.65928187949356 2.8292867499995165 0 0 0
58 1 1.414643374999895 23.25344959838454 1.4146433750000416 0 0 0
60 1 1.4146433750002272 23.253449598385057 4.243930125000109 0 0 0
65 1 0 24.93429539404 0 0 0 0
66 1 1.414643375 26.348937423841 1.414643375 0 0 0
67 1 0 24.93429539404 2.82928675 0 0 0
68 1 1.414643375 26.348937423841 4.243930125 0 0 0
130 1 4.243930125000113 23.25344959838433 1.4146433750001879 0 0 0
132 1 4.243930124999884 23.253449598384922 4.243930124999761 0 0 0
137 1 2.82928675 24.93429539404 0 0 0 0
138 1 4.243930125 26.348937423841 1.414643375 0 0 0
139 1 2.82928675 24.93429539404 2.82928675 0 0 0
140 1 4.243930125 26.348937423841 4.243930125 0 0 0
202 1 7.073216874999792 23.253449598384577 1.4146433749999126 0 0 0
204 1 7.073216875000147 23.25344959838505 4.243930125000058 0 0 0
209 1 5.6585735 24.93429539404 0 0 0 0
210 1 7.073216875 26.348937423841 1.414643375 0 0 0
211 1 5.6585735 24.93429539404 2.82928675 0 0 0
212 1 7.073216875 26.348937423841 4.243930125 0 0 0
274 1 9.902503625000195 23.2534495983843 1.414643375000143 0 0 0
276 1 9.902503624999738 23.25344959838489 4.243930124999764 0 0 0
281 1 8.48786025 24.93429539404 0 0 0 0
282 1 9.902503625 26.348937423841 1.414643375 0 0 0
283 1 8.48786025 24.93429539404 2.82928675 0 0 0
284 1 9.902503625 26.348937423841 4.243930125 0 0 0
5 1 0 0 5.6585735 0 0 0
6 1 1.414643375 1.414643557616 7.073216875 0 0 0
7 1 0 0 8.48786025 0 0 0
8 1 1.414643375 1.414643557616 9.902503625 0 0 0
13 1 0 2.82928660596 5.6585735 0 0 0
14 1 1.414643374999137 4.421208495796599 7.073216875001449 0 0 0
15 1 0 2.82928660596 8.48786025 0 0 0
16 1 1.414643375000915 4.421208495796966 9.902503624998763 0 0 0
77 1 2.82928675 0 5.6585735 0 0 0
78 1 4.243930125 1.414643557616 7.073216875 0 0 0
79 1 2.82928675 0 8.48786025 0 0 0
80 1 4.243930125 1.414643557616 9.902503625 0 0 0
85 1 2.82928675 2.82928660596 5.6585735 0 0 0
86 1 4.24393012500096 4.421208495796728 7.073216874999444 0 0 0
87 1 2.82928675 2.82928660596 8.48786025 0 0 0
88 1 4.243930124999067 4.421208495796744 9.902503625000252 0 0 0
149 1 5.6585735 0 5.6585735 0 0 0
150 1 7.073216875 1.414643557616 7.073216875 0 0 0
151 1 5.6585735 0 8.48786025 0 0 0
152 1 7.073216875 1.414643557616 9.902503625 0 0 0
157 1 5.6585735 2.82928660596 5.6585735 0 0 0
158 1 7.073216874999091 4.421208495796677 7.073216875001288 0 0 0
159 1 5.6585735 2.82928660596 8.48786025 0 0 0
160 1 7.073216875000845 4.421208495796926 9.902503624999008 0 0 0
221 1 8.48786025 0 5.6585735 0 0 0
222 1 9.902503625 1.414643557616 7.073216875 0 0 0
223 1 8.48786025 0 8.48786025 0 0 0
224 1 9.902503625 1.414643557616 9.902503625 0 0 0
229 1 8.48786025 2.82928660596 5.6585735 0 0 0
230 1 9.902503625000815 4.421208495796729 7.073216874999222 0 0 0
231 1 8.48786025 2.82928660596 8.48786025 0 0 0
232 1 9.902503624999175 4.421208495796842 9.902503625000643 0 0 0
21 1 11.317146999997918 5.99701238983454 5.658573500001059 -1 0 0
22 1 1.4146433749979535 7.574978043777944 7.0732168750019735 0 0 0
23 1 1.7763568394002505e-12 5.997012389834179 8.487860249998818 0 0 0
24 1 1.4146433750019742 7.574978043777883 9.902503624998198 0 0 0
29 1 11.317146999997933 9.147906542519088 5.6585735000013 -1 0 0
31 1 2.1085355683680973e-12 9.147906542519271 8.48786024999848 0 0 0
93 1 2.8292867500019714 5.997012389834511 5.658573499998018 0 0 0
94 1 4.243930125002234 7.574978043777841 7.073216874997686 0 0 0
95 1 2.8292867499982983 5.997012389834135 8.487860250001921 0 0 0
96 1 4.243930124998049 7.574978043778106 9.902503625001925 0 0 0
101 1 2.829286750002136 9.14790654251926 5.658573499997179 0 0 0
103 1 2.8292867499978525 9.147906542519298 8.487860250002733 0 0 0
165 1 5.658573499998129 5.997012389834613 5.658573500001414 0 0 0
166 1 7.073216874997866 7.574978043777907 7.073216875001576 0 0 0
167 1 5.658573500001523 5.997012389834147 8.487860249998574 0 0 0
168 1 7.073216875001782 7.574978043777905 9.902503624998783 0 0 0
173 1 5.658573499997927 9.147906542519133 5.658573500001516 0 0 0
175 1 5.658573500001869 9.147906542519204 8.487860249998363 0 0 0
237 1 8.487860250001988 5.997012389834475 5.658573499998244 0 0 0
238 1 9.90250362500194 7.574978043777856 7.073216874997579 0 0 0
239 1 8.487860249998407 5.997012389834094 8.487860250001669 0 0 0
240 1 9.902503624998193 7.574978043778117 9.902503625002446 0 0 0
245 1 8.487860250002006 9.147906542519197 5.658573499997435 0 0 0
247 1 8.487860249998176 9.147906542519422 8.487860250002466 0 0 0
30 1 1.41464337499826 10.714288977105323 7.073216875001789 0 0 0
32 1 1.4146433750019451 10.714288977104541 9.902503624997953 0 0 0
37 1 11.317146999999084 12.280319873897358 5.658573500001848 -1 0 0
38 1 1.4146433749990825 13.846574772978059 7.073216875000649 0 0 0
39 1 1.2797427249240996e-12 12.280319873897444 8.487860249998075 0 0 0
40 1 1.4146433750008016 13.84657477297845 9.902503624999028 0 0 0
102 1 4.243930125001803 10.714288977105237 7.073216874998098 0 0 0
104 1 4.243930124998083 10.71428897710466 9.902503625001875 0 0 0
109 1 2.829286750001129 12.280319873897293 5.65857349999915 0 0 0
110 1 4.243930125000892 13.846574772978098 7.073216874999502 0 0 0
111 1 2.829286749998751 12.28031987389738 8.487860250000754 0 0 0
112 1 4.24393012499906 13.846574772978421 9.902503625000552 0 0 0
174 1 7.0732168749983995 10.714288977105292 7.073216875001548 0 0 0
176 1 7.073216875001828 10.714288977104575 9.902503624998491 0 0 0
181 1 5.658573499998751 12.280319873897252 5.658573500001725 0 0 0
182 1 7.073216874999334 13.846574772978066 7.073216875000959 0 0 0
183 1 5.658573500001164 12.280319873897483 8.487860249998056 0 0 0
184 1 7.073216875000813 13.846574772978446 9.9025036249992 0 0 0
246 1 9.902503625001534 10.71428897710523 7.073216874998393 0 0 0
248 1 9.902503624998138 10.714288977104557 9.902503625001994 0 0 0
253 1 8.487860250001042 12.280319873897279 5.658573499999427 0 0 0
254 1 9.902503625000692 13.846574772978123 7.073216874999565 0 0 0
255 1 8.487860249998814 12.280319873897444 8.487860250000427 0 0 0
256 1 9.902503624999337 13.846574772978418 9.902503625000707 0 0 0
45 1 11.317146999999935 15.411972953346229 5.6585735000008786 -1 0 0
46 1 1.4146433749994627 16.97666102254166 7.073216874999477 0 0 0
47 1 1.0646827905674638e-13 15.411972953346098 8.48786024999939 0 0 0
48 1 1.4146433750008793 16.976661022542437 9.902503625000088 0 0 0
117 1 2.829286750000055 15.411972953346273 5.658573499999441 0 0 0
118 1 4.243930125000655 16.976661022541226 7.073216875000476 0 0 0
119 1 2.8292867500000165 15.411972953346268 8.487860250000676 0 0 0
120 1 4.2439301249989585 16.976661022542103 9.90250362499962 0 0 0
189 1 5.658573499999606 15.41197295334622 5.658573500000625 0 0 0
190 1 7.07321687499952 16.97666102254159 7.073216875000047 0 0 0
191 1 5.658573500000116 15.411972953346208 8.487860249999153 0 0 0
192 1 7.073216875000783 16.976661022542427 9.902503625000275 0 0 0
261 1 8.487860250000407 15.411972953346302 5.658573499999659 0 0 0
262 1 9.902503625000367 16.97666102254129 7.073216875000167 0 0 0
263 1 8.487860249999766 15.4119729533462 8.48786025000025 0 0 0
264 1 9.902503624999381 16.97666102254217 9.902503625000051 0 0 0
53 1 1.297541505975574e-12 18.538458028280555 5.658573499999832 0 0 0
54 1 1.4146433749990932 20.10210745290205 7.073216874998808 0 0 0
55 1 4.440892098500626e-14 18.538458028280257 8.487860250000669 0 0 0
56 1 1.4146433750008822 20.102107452900476 9.902503625000671 0 0 0
61 1 1.1723955140041653e-13 21.659281879493328 5.6585735000018635 0 0 0
63 1 11.317146999999327 21.659281879493555 8.487860249998404 -1 0 0
125 1 2.8292867499983947 18.538458028280342 5.65857349999802 0 0 0
126 1 4.243930125001083 20.102107452902622 7.073216875000537 0 0 0
127 1 2.829286750000097 18.538458028280186 8.487860250002468 0 0 0
128 1 4.243930124999089 20.102107452901052 9.902503624999625 0 0 0
133 1 2.8292867499996905 21.659281879493445 5.658573500000838 0 0 0
135 1 2.8292867500007444 21.659281879493523 8.487860249999464 0 0 0
197 1 5.658573500001196 18.538458028280598 5.658573499999499 0 0 0
198 1 7.073216874999025 20.102107452902047 7.073216874998994 0 0 0
199 1 5.6585734999999175 18.538458028280296 8.48786025000041 0 0 0
200 1 7.073216875000674 20.10210745290048 9.90250362500117 0 0 0
205 1 5.658573500000121 21.659281879493317 5.658573500001672 0 0 0
207 1 5.658573499999188 21.65928187949348 8.487860249998306 0 0 0
269 1 8.487860249999118 18.538458028280445 5.6585734999980675 0 0 0
270 1 9.902503625000795 20.1021074529026 7.073216874999985 0 0 0
271 1 8.48786024999995 18.538458028280086 8.487860250002068 0 0 0
272 1 9.902503624999357 20.102107452901027 9.902503625000286 0 0 0
277 1 8.487860250000077 21.659281879493392 5.658573500000836 0 0 0
279 1 8.48786025000074 21.65928187949362 8.487860249999278 0 0 0
62 1 1.4146433749998653 23.253449598384453 7.073216874999805 0 0 0
64 1 1.41464337500023 23.253449598385057 9.902503625000044 0 0 0
69 1 0 24.93429539404 5.6585735 0 0 0
70 1 1.414643375 26.348937423841 7.073216875 0 0 0
71 1 0 24.93429539404 8.48786025 0 0 0
72 1 1.414643375 26.348937423841 9.902503625 0 0 0
134 1 4.243930125000174 23.25344959838434 7.073216875000178 0 0 0
136 1 4.2439301249997685 23.25344959838483 9.902503624999877 0 0 0
141 1 2.82928675 24.93429539404 5.6585735 0 0 0
142 1 4.243930125 26.348937423841 7.073216875 0 0 0
143 1 2.82928675 24.93429539404 8.48786025 0 0 0
144 1 4.243930125 26.348937423841 9.902503625 0 0 0
206 1 7.073216874999856 23.253449598384478 7.073216874999873 0 0 0
208 1 7.073216875000179 23.253449598385043 9.902503625000154 0 0 0
213 1 5.6585735 24.93429539404 5.6585735 0 0 0
214 1 7.073216875 26.348937423841 7.073216875 0 0 0
215 1 5.6585735 24.93429539404 8.48786025 0 0 0
216 1 7.073216875 26.348937423841 9.902503625 0 0 0
278 1 9.90250362500011 23.2534495983843 7.0732168750001 0 0 0
280 1 9.902503624999822 23.2534495983848 9.902503624999982 0 0 0
285 1 8.48786025 24.93429539404 5.6585735 0 0 0
286 1 9.902503625 26.348937423841 7.073216875 0 0 0
287 1 8.48786025 24.93429539404 8.48786025 0 0 0
288 1 9.902503625 26.348937423841 9.902503625 0 0 0

Velocities

1 0 0 0
2 0 0 0
3 0 0 0
4 0 0 0
9 0 0 0
10 0 0 0
11 0 0 0
12 0 0 0
73 0 0 0
74 0 0 0
75 0 0 0
76 0 0 0
81 0 0 0
82 0 0 0
83 0 0 0
84 0 0 0
145 0 0 0
146 0 0 0
147 0 0 0
148 0 0 0
153 0 0 0
154 0 0 0
155 0 0 0
156 0 0 0
217 0 0 0
218 0 0 0
219 0 0 0
220 0 0 0
225 0 0 0
226 0 0 0
227 0 0 0
228 0 0 0
17 0 0 0
18 0 0 0
19 0 0 0
20 0 0 0
25 0 0 0
27 0 0 0
89 0 0 0
90 0 0 0
91 0 0 0
92 0 0 0
97 0 0 0
99 0 0 0
161 0 0 0
162 0 0 0
163 0 0 0
164 0 0 0
169 0 0 0
171 0 0 0
233 0 0 0
234 0 0 0
235 0 0 0
236 0 0 0
241 0 0 0
243 0 0 0
26 0 0 0
28 0 0 0
33 0 0 0
34 0 0 0
35 0 0 0
36 0 0 0
98 0 0 0
100 0 0 0
105 0 0 0
106 0 0 0
107 0 0 0
108 0 0 0
170 0 0 0
172 0 0 0
177 0 0 0
178 0 0 0
179 0 0 0
180 0 0 0
242 0 0 0
244 0 0 0
249 0 0 0
250 0 0 0
251 0 0 0
252 0 0 0
41 0 0 0
42 0 0 0
43 0 0 0
44 0 0 0
113 0 0 0
114 0 0 0
115 0 0 0
116 0 0 0
185 0 0 0
186 0 0 0
187 0 0 0
188 0 0 0
257 0 0 0
258 0 0 0
259 0 0 0
260 0 0 0
49 0 0 0
50 0 0 0
51 0 0 0
52 0 0 0
57 0 0 0
59 0 0 0
121 0 0 0
122 0 0 0
123 0 0 0
124 0 0 0
129 0 0 0
131 0 0 0
193 0 0 0
194 0 0 0
195 0 0 0
196 0 0 0
201 0 0 0
203 0 0 0
265 0 0 0
266 0 0 0
267 0 0 0
268 0 0 0
273 0 0 0
275 0 0 0
58 0 0 0
60 0 0 0
65 0 0 0
66 0 0 0
67 0 0 0
68 0 0 0
130 0 0 0
132 0 0 0
137 0 0 0
138 0 0 0
139 0 0 0
140 0 0 0
202 0 0 0
204 0 0 0
209 0 0 0
210 0 0 0
211 0 0 0
212 0 0 0
274 0 0 0
276 0 0 0
281 0 0 0
282 0 0 0
283 0 0 0
284 0 0 0
5 0 0 0
6 0 0 0
7 0 0 0
8 0 0 0
13 0 0 0
14 0 0 0
15 0 0 0
16 0 0 0
77 0 0 0
78 0 0 0
79 0 0 0
80 0 0 0
85 0 0 0
86 0 0 0
87 0 0 0
88 0 0 0
149 0 0 0
150 0 0 0
151 0 0 0
152 0 0 0
157 0 0 0
158 0 0 0
159 0 0 0
160 0 0 0
221 0 0 0
222 0 0 0
223 0 0 0
224 0 0 0
229 0 0 0
230 0 0 0
231 0 0 0
232 0 0 0
21 0 0 0
22 0 0 0
23 0 0 0
24 0 0 0
29 0 0 0
31 0 0 0
93 0 0 0
94 0 0 0
95 0 0 0
96 0 0 0
101 0 0 0
103 0 0 0
165 0 0 0
166 0 0 0
167 0 0 0
168 0 0 0
173 0 0 0
175 0 0 0
237 0 0 0
238 0 0 0
239 0 0 0
240 0 0 0
245 0 0 0
247 0 0 0
30 0 0 0
32 0 0 0
37 0 0 0
38 0 0 0
39 0 0 0
40 0 0 0
102 0 0 0
104 0 0 0
109 0 0 0
110 0 0 0
111 0 0 0
112 0 0 0
174 0 0 0
176 0 0 0
181 0 0 0
182 0 0 0
183 0 0 0
184 0 0 0
246 0 0 0
248 0 0 0
253 0 0 0
254 0 0 0
255 0 0 0
256 0 0 0
45 0 0 0
46 0 0 0
47 0 0 0
48 0 0 0
117 0 0 0
118 0 0 0
119 0 0 0
120 0 0 0
189 0 0 0
190 0 0 0
191 0 0 0
192 0 0 0
261 0 0 0
262 0 0 0
263 0 0 0
264 0 0 0
53 0 0 0
54 0 0 0
55 0 0 0
56 0 0 0
61 0 0 0
63 0 0 0
125 0 0 0
126 0 0 0
127 0 0 0
128 0 0 0
133 0 0 0
135 0 0 0
197 0 0 0
198 0 0 0
199 0 0 0
200 0 0 0
205 0 0 0
207 0 0 0
269 0 0 0
270 0 0 0
271 0 0 0
272 0 0 0
277 0 0 0
279 0 0 0
62 0 0 0
64 0 0 0
69 0 0 0
70 0 0 0
71 0 0 0
72 0 0 0
134 0 0 0
136 0 0 0
141 0 0 0
142 0 0 0
143 0 0 0
144 0 0 0
206 0 0 0
208 0 0 0
213 0 0 0
214 0 0 0
215 0 0 0
216 0 0 0
278 0 0 0
280 0 0 0
285 0 0 0
286 0 0 0
287 0 0 0
288 0 0 0
