LAMMPS data file via write_data, version 29 Aug 2024, timestep = 6, units = metal

288 atoms
1 atom types

0 11.317147 xlo xhi
0 29.363582 ylo yhi
0 11.317147 zlo zhi

Masses

1 55.8

Atoms # atomic

1 1 0 0 0 0 0 0
2 1 1.414643375 1.414643557616 1.414643375 0 0 0
3 1 0 0 2.82928675 0 0 0
4 1 1.414643375 1.414643557616 4.243930125 0 0 0
9 1 0 2.82928660596 0 0 0 0
10 1 1.414643375000002 4.247944762259663 1.4146433750000005 0 0 0
11 1 0 2.82928660596 2.82928675 0 0 0
12 1 1.4146433749999978 4.247944762259671 4.243930124999998 0 0 0
73 1 2.82928675 0 0 0 0 0
74 1 4.243930125 1.414643557616 1.414643375 0 0 0
75 1 2.82928675 0 2.82928675 0 0 0
76 1 4.243930125 1.414643557616 4.243930125 0 0 0
81 1 2.82928675 2.82928660596 0 0 0 0
82 1 4.243930124999999 4.24794476225966 1.4146433750000007 0 0 0
83 1 2.82928675 2.82928660596 2.82928675 0 0 0
84 1 4.243930125 4.247944762259663 4.243930125000001 0 0 0
145 1 5.6585735 0 0 0 0 0
146 1 7.073216875 1.414643557616 1.414643375 0 0 0
147 1 5.6585735 0 2.82928675 0 0 0
148 1 7.073216875 1.414643557616 4.243930125 0 0 0
153 1 5.6585735 2.82928660596 0 0 0 0
154 1 7.073216874999996 4.247944762259663 1.4146433750000031 0 0 0
155 1 5.6585735 2.82928660596 2.82928675 0 0 0
156 1 7.073216875000007 4.247944762259668 4.243930124999998 0 0 0
217 1 8.48786025 0 0 0 0 0
218 1 9.902503625 1.414643557616 1.414643375 0 0 0
219 1 8.48786025 0 2.82928675 0 0 0
220 1 9.902503625 1.414643557616 4.243930125 0 0 0
225 1 8.48786025 2.82928660596 0 0 0 0
226 1 9.902503625 4.247944762259661 1.4146433749999967 0 0 0
227 1 8.48786025 2.82928660596 2.82928675 0 0 0
228 1 9.902503625000003 4.24794476225967 4.243930124999996 0 0 0
17 1 4.00197650382566e-15 5.66816138607147 11.317146999999997 0 0 -1
18 1 1.414643375000004 7.092120636986965 1.4146433749999996 0 0 0
19 1 8.67220996225044e-15 5.668161386071468 2.8292867500000036 0 0 0
20 1 1.4146433749999996 7.092120636986956 4.243930124999999 0 0 0
25 1 11.317146999999999 8.515589373934253 3.1338840059518424e-15 -1 0 0
27 1 3.889730338749548e-15 8.515589373934255 2.829286749999998 0 0 0
89 1 2.8292867499999996 5.6681613860714695 11.317146999999999 0 0 -1
90 1 4.243930125000002 7.092120636986966 1.4146433749999958 0 0 0
91 1 2.829286749999991 5.668161386071467 2.829286750000001 0 0 0
92 1 4.243930125000003 7.092120636986953 4.243930125000004 0 0 0
97 1 2.8292867500000014 8.515589373934253 4.858996411315112e-15 0 0 0
99 1 2.8292867499999947 8.515589373934255 2.8292867499999974 0 0 0
161 1 5.658573500000005 5.6681613860714775 1.1841523100918065e-15 0 0 0
162 1 7.073216874999998 7.09212063698696 1.4146433750000027 0 0 0
163 1 5.6585735000000055 5.668161386071477 2.829286749999999 0 0 0
164 1 7.073216875 7.092120636986952 4.243930125 0 0 0
169 1 5.658573499999995 8.515589373934253 2.3054857728151167e-15 0 0 0
171 1 5.658573500000003 8.515589373934251 2.82928674999999 0 0 0
233 1 8.487860250000002 5.668161386071477 11.317146999999993 0 0 -1
234 1 9.902503624999994 7.092120636986969 1.4146433749999958 0 0 0
235 1 8.487860249999992 5.668161386071474 2.829286750000003 0 0 0
236 1 9.902503624999996 7.092120636986961 4.243930125000004 0 0 0
241 1 8.487860250000008 8.515589373934251 3.935354375758393e-15 0 0 0
243 1 8.487860250000002 8.515589373934256 2.829286749999996 0 0 0
26 1 1.4146433750000014 9.930319068034247 1.4146433750000076 0 0 0
28 1 1.4146433749999987 9.930319068034256 4.243930124999997 0 0 0
33 1 11.317146999999999 11.360717937280626 11.317146999999997 -1 0 -1
34 1 1.414643374999997 12.761121695873417 1.4146433750000014 0 0 0
35 1 0 11.36071793728062 2.829286750000005 0 0 0
36 1 1.4146433749999974 12.761121695873415 4.243930124999997 0 0 0
98 1 4.243930125000002 9.930319068034246 1.4146433750000027 0 0 0
100 1 4.2439301249999986 9.93031906803426 4.2439301249999986 0 0 0
105 1 2.8292867499999974 11.360717937280628 11.317146999999995 0 0 -1
106 1 4.243930124999997 12.761121695873415 1.4146433750000016 0 0 0
107 1 2.8292867499999987 11.360717937280631 2.829286750000003 0 0 0
108 1 4.243930125000004 12.761121695873415 4.243930125000006 0 0 0
170 1 7.0732168750000035 9.930319068034247 1.4146433750000043 0 0 0
172 1 7.073216875000004 9.930319068034258 4.243930124999995 0 0 0
177 1 5.6585735 11.360717937280628 3.58526931894633e-15 0 0 0
178 1 7.073216875000004 12.761121695873419 1.4146433750000058 0 0 0
179 1 5.658573500000007 11.360717937280626 2.8292867500000067 0 0 0
180 1 7.073216874999995 12.76112169587341 4.243930124999994 0 0 0
242 1 9.902503624999996 9.930319068034246 1.4146433750000036 0 0 0
244 1 9.902503624999998 9.930319068034247 4.243930124999998 0 0 0
249 1 8.487860249999999 11.360717937280626 0 0 0 0
250 1 9.902503624999994 12.761121695873417 1.4146433749999996 0 0 0
251 1 8.487860249999999 11.360717937280619 2.8292867500000054 0 0 0
252 1 9.902503625000001 12.761121695873415 4.2439301249999986 0 0 0
41 1 0 18.01670017619684 2.0198636638980455e-15 0 0 0
42 1 1.4146433749999994 19.417532980710774 1.414643375000001 0 0 0
43 1 11.317146999999997 18.016700176196846 2.8292867499999974 -1 0 0
44 1 1.4146433749999954 19.417532980710778 4.243930124999999 0 0 0
113 1 2.8292867500000036 18.016700176196842 1.3537195186118753e-15 0 0 0
114 1 4.243930125000003 19.417532980710778 1.4146433750000007 0 0 0
115 1 2.829286750000003 18.01670017619684 2.8292867499999983 0 0 0
116 1 4.243930125000003 19.417532980710774 4.2439301249999986 0 0 0
185 1 5.658573500000007 18.016700176196842 11.317146999999997 0 0 -1
186 1 7.073216875000002 19.417532980710774 1.4146433749999996 0 0 0
187 1 5.658573500000001 18.016700176196842 2.8292867499999996 0 0 0
188 1 7.073216875000004 19.417532980710778 4.243930125000004 0 0 0
257 1 8.48786025 18.016700176196846 11.317146999999997 0 0 -1
258 1 9.902503624999998 19.417532980710774 1.4146433750000051 0 0 0
259 1 8.487860250000004 18.01670017619684 2.8292867500000005 0 0 0
260 1 9.902503625000007 19.41753298071078 4.243930124999993 0 0 0
49 1 3.043827932172912e-15 20.84855415253683 11.317146999999997 0 0 -1
50 1 1.4146433749999952 22.264381860351175 1.4146433749999925 0 0 0
51 1 11.317146999999997 20.848554152536824 2.829286750000004 -1 0 0
52 1 1.4146433749999963 22.264381860351175 4.243930125000006 0 0 0
57 1 1.0093239764011214e-14 23.686081405359438 11.317146999999999 0 0 -1
59 1 1.0062194052289792e-15 23.68608140535945 2.829286750000002 0 0 0
121 1 2.8292867500000023 20.848554152536828 9.599753877196196e-16 0 0 0
122 1 4.243930124999995 22.26438186035117 1.4146433749999945 0 0 0
123 1 2.829286750000003 20.84855415253682 2.829286749999996 0 0 0
124 1 4.243930124999994 22.264381860351175 4.243930124999996 0 0 0
129 1 2.829286749999999 23.68608140535944 11.317146999999997 0 0 -1
131 1 2.8292867499999996 23.68608140535945 2.8292867500000005 0 0 0
193 1 5.6585735 20.848554152536824 0 0 0 0
194 1 7.073216875000006 22.26438186035118 1.4146433749999958 0 0 0
195 1 5.658573499999999 20.848554152536817 2.829286749999998 0 0 0
196 1 7.073216875000008 22.264381860351175 4.243930124999999 0 0 0
201 1 5.658573499999999 23.686081405359452 11.317146999999997 0 0 -1
203 1 5.6585735000000055 23.686081405359452 2.8292867500000045 0 0 0
265 1 8.487860249999999 20.84855415253683 3.4559456555057558e-15 0 0 0
266 1 9.902503625000003 22.26438186035117 1.414643374999997 0 0 0
267 1 8.48786025 20.848554152536824 2.829286750000003 0 0 0
268 1 9.902503625000005 22.26438186035117 4.243930125000005 0 0 0
273 1 8.487860249999992 23.686081405359445 5.394693919979744e-16 0 0 0
275 1 8.487860249999995 23.686081405359445 2.829286750000003 0 0 0
58 1 1.414643374999999 25.103280688006016 1.414643375000006 0 0 0
60 1 1.4146433749999958 25.103280688006013 4.243930124999998 0 0 0
65 1 0 26.53429539404 0 0 0 0
66 1 1.414643375 27.948937423841 1.414643375 0 0 0
67 1 0 26.53429539404 2.82928675 0 0 0
68 1 1.414643375 27.948937423841 4.243930125 0 0 0
130 1 4.243930125 25.103280688006013 1.4146433750000031 0 0 0
132 1 4.243930124999998 25.103280688006013 4.243930125000001 0 0 0
137 1 2.82928675 26.53429539404 0 0 0 0
138 1 4.243930125 27.948937423841 1.414643375 0 0 0
139 1 2.82928675 26.53429539404 2.82928675 0 0 0
140 1 4.243930125 27.948937423841 4.243930125 0 0 0
202 1 7.073216874999998 25.10328068800601 1.4146433750000014 0 0 0
204 1 7.073216874999999 25.103280688006013 4.243930124999996 0 0 0
209 1 5.6585735 26.53429539404 0 0 0 0
210 1 7.073216875 27.948937423841 1.414643375 0 0 0
211 1 5.6585735 26.53429539404 2.82928675 0 0 0
212 1 7.073216875 27.948937423841 4.243930125 0 0 0
274 1 9.902503625000001 25.103280688006024 1.4146433750000091 0 0 0
276 1 9.902503625000005 25.10328068800602 4.243930124999997 0 0 0
281 1 8.48786025 26.53429539404 0 0 0 0
282 1 9.902503625 27.948937423841 1.414643375 0 0 0
283 1 8.48786025 26.53429539404 2.82928675 0 0 0
284 1 9.902503625 27.948937423841 4.243930125 0 0 0
5 1 0 0 5.6585735 0 0 0
6 1 1.414643375 1.414643557616 7.073216875 0 0 0
7 1 0 0 8.48786025 0 0 0
8 1 1.414643375 1.414643557616 9.902503625 0 0 0
13 1 0 2.82928660596 5.6585735 0 0 0
14 1 1.4146433749999994 4.24794476225966 7.073216875000005 0 0 0
15 1 0 2.82928660596 8.48786025 0 0 0
16 1 1.4146433749999991 4.247944762259669 9.902503625000007 0 0 0
77 1 2.82928675 0 5.6585735 0 0 0
78 1 4.243930125 1.414643557616 7.073216875 0 0 0
79 1 2.82928675 0 8.48786025 0 0 0
80 1 4.243930125 1.414643557616 9.902503625 0 0 0
85 1 2.82928675 2.82928660596 5.6585735 0 0 0
86 1 4.243930125000006 4.2479447622596584 7.073216875000002 0 0 0
87 1 2.82928675 2.82928660596 8.48786025 0 0 0
88 1 4.243930124999996 4.247944762259669 9.902503624999998 0 0 0
149 1 5.6585735 0 5.6585735 0 0 0
150 1 7.073216875 1.414643557616 7.073216875 0 0 0
151 1 5.6585735 0 8.48786025 0 0 0
152 1 7.073216875 1.414643557616 9.902503625 0 0 0
157 1 5.6585735 2.82928660596 5.6585735 0 0 0
158 1 7.073216874999995 4.2479447622596584 7.073216874999996 0 0 0
159 1 5.6585735 2.82928660596 8.48786025 0 0 0
160 1 7.073216875000005 4.247944762259669 9.902503625000001 0 0 0
221 1 8.48786025 0 5.6585735 0 0 0
222 1 9.902503625 1.414643557616 7.073216875 0 0 0
223 1 8.48786025 0 8.48786025 0 0 0
224 1 9.902503625 1.414643557616 9.902503625 0 0 0
229 1 8.48786025 2.82928660596 5.6585735 0 0 0
230 1 9.902503625000003 4.247944762259662 7.073216875000003 0 0 0
231 1 8.48786025 2.82928660596 8.48786025 0 0 0
232 1 9.902503625000003 4.247944762259668 9.902503625000005 0 0 0
21 1 1.2598614655495265e-15 5.668161386071471 5.658573499999995 0 0 0
22 1 1.4146433750000051 7.092120636986965 7.073216875000002 0 0 0
23 1 2.2998130807461733e-15 5.66816138607147 8.487860250000006 0 0 0
24 1 1.4146433749999985 7.092120636986956 9.902503625000003 0 0 0
29 1 7.176165735202822e-16 8.515589373934256 5.658573499999999 0 0 0
31 1 1.6398925336443447e-15 8.515589373934265 8.487860249999999 0 0 0
93 1 2.829286749999997 5.668161386071472 5.658573499999993 0 0 0
94 1 4.243930125000003 7.0921206369869685 7.073216875000003 0 0 0
95 1 2.8292867500000027 5.6681613860714695 8.487860250000006 0 0 0
96 1 4.2439301249999986 7.092120636986958 9.902503625 0 0 0
101 1 2.8292867499999943 8.515589373934253 5.6585735000000055 0 0 0
103 1 2.8292867499999996 8.515589373934258 8.487860249999994 0 0 0
165 1 5.658573500000004 5.668161386071477 5.6585734999999975 0 0 0
166 1 7.073216874999996 7.092120636986963 7.0732168749999955 0 0 0
167 1 5.658573499999994 5.668161386071474 8.487860249999999 0 0 0
168 1 7.073216875000002 7.092120636986953 9.902503625000008 0 0 0
173 1 5.6585734999999975 8.51558937393425 5.658573500000009 0 0 0
175 1 5.658573499999995 8.515589373934255 8.487860249999995 0 0 0
237 1 8.487860249999995 5.668161386071475 5.658573499999993 0 0 0
238 1 9.902503625 7.092120636986968 7.073216874999995 0 0 0
239 1 8.487860249999995 5.668161386071474 8.48786025000001 0 0 0
240 1 9.902503625 7.09212063698696 9.902503625000005 0 0 0
245 1 8.487860250000004 8.515589373934251 5.658573500000002 0 0 0
247 1 8.487860250000004 8.515589373934263 8.487860249999995 0 0 0
30 1 1.4146433749999994 9.930319068034246 7.073216875000004 0 0 0
32 1 1.414643374999999 9.930319068034253 9.902503624999994 0 0 0
37 1 0 11.36071793728062 5.658573499999998 0 0 0
38 1 1.4146433750000027 12.761121695873413 7.073216874999999 0 0 0
39 1 1.8182375218675743e-15 11.360717937280626 8.487860249999997 0 0 0
40 1 1.4146433749999976 12.761121695873411 9.902503625 0 0 0
102 1 4.243930124999999 9.930319068034247 7.073216875000004 0 0 0
104 1 4.243930124999997 9.930319068034255 9.902503624999998 0 0 0
109 1 2.8292867500000014 11.360717937280626 5.658573499999994 0 0 0
110 1 4.243930124999994 12.761121695873417 7.073216874999991 0 0 0
111 1 2.8292867499999943 11.360717937280628 8.487860250000002 0 0 0
112 1 4.243930124999996 12.761121695873417 9.902503625000001 0 0 0
174 1 7.073216875000002 9.930319068034253 7.073216875000005 0 0 0
176 1 7.073216875000002 9.930319068034258 9.902503625000001 0 0 0
181 1 5.658573500000004 11.360717937280628 5.658573499999992 0 0 0
182 1 7.0732168750000035 12.76112169587342 7.073216874999996 0 0 0
183 1 5.658573500000003 11.360717937280626 8.487860249999997 0 0 0
184 1 7.073216875000004 12.761121695873417 9.902503625000003 0 0 0
246 1 9.902503625 9.930319068034246 7.073216875000004 0 0 0
248 1 9.902503625 9.930319068034251 9.902503625 0 0 0
253 1 8.487860249999999 11.360717937280626 5.658573499999994 0 0 0
254 1 9.902503625000001 12.761121695873419 7.073216874999995 0 0 0
255 1 8.487860250000002 11.360717937280624 8.48786025 0 0 0
256 1 9.902503625000001 12.761121695873413 9.902503625000007 0 0 0
45 1 11.317146999999997 18.016700176196842 5.658573499999999 -1 0 0
46 1 1.4146433750000036 19.417532980710778 7.073216875000004 0 0 0
47 1 11.317146999999995 18.016700176196846 8.487860250000006 -1 0 0
48 1 1.4146433749999978 19.41753298071078 9.902503624999998 0 0 0
117 1 2.8292867500000027 18.01670017619684 5.658573500000001 0 0 0
118 1 4.243930125 19.417532980710778 7.073216875000001 0 0 0
119 1 2.8292867499999956 18.016700176196842 8.487860250000004 0 0 0
120 1 4.2439301249999986 19.417532980710778 9.902503624999996 0 0 0
189 1 5.658573499999998 18.016700176196842 5.6585735 0 0 0
190 1 7.073216875000002 19.417532980710778 7.073216874999997 0 0 0
191 1 5.6585735000000055 18.016700176196842 8.48786025 0 0 0
192 1 7.073216875000001 19.417532980710778 9.902503625 0 0 0
261 1 8.487860250000002 18.01670017619684 5.658573500000002 0 0 0
262 1 9.902503624999996 19.41753298071078 7.073216875000008 0 0 0
263 1 8.48786025 18.016700176196846 8.487860250000004 0 0 0
264 1 9.902503624999996 19.417532980710778 9.902503624999996 0 0 0
53 1 2.8196845383589595e-15 20.84855415253683 5.658573499999995 0 0 0
54 1 1.4146433749999985 22.264381860351175 7.073216875 0 0 0
55 1 2.1379970853164987e-15 20.848554152536824 8.487860250000008 0 0 0
56 1 1.414643374999994 22.26438186035118 9.902503625000003 0 0 0
61 1 7.000413731953398e-15 23.686081405359445 5.658573499999998 0 0 0
63 1 4.9379335564612555e-15 23.686081405359452 8.487860250000002 0 0 0
125 1 2.8292867499999996 20.848554152536828 5.658573500000005 0 0 0
126 1 4.243930124999991 22.26438186035117 7.0732168750000035 0 0 0
127 1 2.829286750000003 20.84855415253682 8.48786025 0 0 0
128 1 4.243930124999998 22.264381860351175 9.902503625000001 0 0 0
133 1 2.829286749999994 23.68608140535945 5.658573499999999 0 0 0
135 1 2.8292867499999983 23.686081405359445 8.487860250000002 0 0 0
197 1 5.658573500000002 20.848554152536817 5.658573500000001 0 0 0
198 1 7.073216875000008 22.264381860351172 7.073216874999998 0 0 0
199 1 5.658573499999997 20.84855415253682 8.487860250000008 0 0 0
200 1 7.073216875000001 22.264381860351182 9.902503625000001 0 0 0
205 1 5.658573500000004 23.686081405359452 5.6585735 0 0 0
207 1 5.658573499999996 23.686081405359452 8.487860250000008 0 0 0
269 1 8.487860249999999 20.848554152536828 5.658573499999996 0 0 0
270 1 9.902503624999994 22.264381860351175 7.073216875000002 0 0 0
271 1 8.487860250000004 20.848554152536824 8.487860249999999 0 0 0
272 1 9.902503625 22.264381860351172 9.902503625 0 0 0
277 1 8.487860249999995 23.68608140535944 5.658573499999999 0 0 0
279 1 8.48786025 23.686081405359445 8.487860249999997 0 0 0
62 1 1.414643374999997 25.103280688006013 7.073216875 0 0 0
64 1 1.4146433749999996 25.103280688006013 9.902503625 0 0 0
69 1 0 26.53429539404 5.6585735 0 0 0
70 1 1.414643375 27.948937423841 7.073216875 0 0 0
71 1 0 26.53429539404 8.48786025 0 0 0
72 1 1.414643375 27.948937423841 9.902503625 0 0 0
134 1 4.243930124999997 25.103280688006016 7.0732168750000035 0 0 0
136 1 4.243930124999999 25.103280688006013 9.902503624999998 0 0 0
141 1 2.82928675 26.53429539404 5.6585735 0 0 0
142 1 4.243930125 27.948937423841 7.073216875 0 0 0
143 1 2.82928675 26.53429539404 8.48786025 0 0 0
144 1 4.243930125 27.948937423841 9.902503625 0 0 0
206 1 7.073216875000001 25.103280688006013 7.073216874999999 0 0 0
208 1 7.073216874999995 25.10328068800601 9.902503625000003 0 0 0
213 1 5.6585735 26.53429539404 5.6585735 0 0 0
214 1 7.073216875 27.948937423841 7.073216875 0 0 0
215 1 5.6585735 26.53429539404 8.48786025 0 0 0
216 1 7.073216875 27.948937423841 9.902503625 0 0 0
278 1 9.902503625000003 25.103280688006016 7.073216875000006 0 0 0
280 1 9.902503625000007 25.103280688006013 9.902503624999996 0 0 0
285 1 8.48786025 26.53429539404 5.6585735 0 0 0
286 1 9.902503625 27.948937423841 7.073216875 0 0 0
287 1 8.48786025 26.53429539404 8.48786025 0 0 0
288 1 9.902503625 27.948937423841 9.902503625 0 0 0

Velocities

1 0 0 0
2 0 0 0
3 0 0 0
4 0 0 0
9 0 0 0
10 0 0 0
11 0 0 0
12 0 0 0
73 0 0 0
74 0 0 0
75 0 0 0
76 0 0 0
81 0 0 0
82 0 0 0
83 0 0 0
84 0 0 0
145 0 0 0
146 0 0 0
147 0 0 0
148 0 0 0
153 0 0 0
154 0 0 0
155 0 0 0
156 0 0 0
217 0 0 0
218 0 0 0
219 0 0 0
220 0 0 0
225 0 0 0
226 0 0 0
227 0 0 0
228 0 0 0
17 0 0 0
18 0 0 0
19 0 0 0
20 0 0 0
25 0 0 0
27 0 0 0
89 0 0 0
90 0 0 0
91 0 0 0
92 0 0 0
97 0 0 0
99 0 0 0
161 0 0 0
162 0 0 0
163 0 0 0
164 0 0 0
169 0 0 0
171 0 0 0
233 0 0 0
234 0 0 0
235 0 0 0
236 0 0 0
241 0 0 0
243 0 0 0
26 0 0 0
28 0 0 0
33 0 0 0
34 0 0 0
35 0 0 0
36 0 0 0
98 0 0 0
100 0 0 0
105 0 0 0
106 0 0 0
107 0 0 0
108 0 0 0
170 0 0 0
172 0 0 0
177 0 0 0
178 0 0 0
179 0 0 0
180 0 0 0
242 0 0 0
244 0 0 0
249 0 0 0
250 0 0 0
251 0 0 0
252 0 0 0
41 0 0 0
42 0 0 0
43 0 0 0
44 0 0 0
113 0 0 0
114 0 0 0
115 0 0 0
116 0 0 0
185 0 0 0
186 0 0 0
187 0 0 0
188 0 0 0
257 0 0 0
258 0 0 0
259 0 0 0
260 0 0 0
49 0 0 0
50 0 0 0
51 0 0 0
52 0 0 0
57 0 0 0
59 0 0 0
121 0 0 0
122 0 0 0
123 0 0 0
124 0 0 0
129 0 0 0
131 0 0 0
193 0 0 0
194 0 0 0
195 0 0 0
196 0 0 0
201 0 0 0
203 0 0 0
265 0 0 0
266 0 0 0
267 0 0 0
268 0 0 0
273 0 0 0
275 0 0 0
58 0 0 0
60 0 0 0
65 0 0 0
66 0 0 0
67 0 0 0
68 0 0 0
130 0 0 0
132 0 0 0
137 0 0 0
138 0 0 0
139 0 0 0
140 0 0 0
202 0 0 0
204 0 0 0
209 0 0 0
210 0 0 0
211 0 0 0
212 0 0 0
274 0 0 0
276 0 0 0
281 0 0 0
282 0 0 0
283 0 0 0
284 0 0 0
5 0 0 0
6 0 0 0
7 0 0 0
8 0 0 0
13 0 0 0
14 0 0 0
15 0 0 0
16 0 0 0
77 0 0 0
78 0 0 0
79 0 0 0
80 0 0 0
85 0 0 0
86 0 0 0
87 0 0 0
88 0 0 0
149 0 0 0
150 0 0 0
151 0 0 0
152 0 0 0
157 0 0 0
158 0 0 0
159 0 0 0
160 0 0 0
221 0 0 0
222 0 0 0
223 0 0 0
224 0 0 0
229 0 0 0
230 0 0 0
231 0 0 0
232 0 0 0
21 0 0 0
22 0 0 0
23 0 0 0
24 0 0 0
29 0 0 0
31 0 0 0
93 0 0 0
94 0 0 0
95 0 0 0
96 0 0 0
101 0 0 0
103 0 0 0
165 0 0 0
166 0 0 0
167 0 0 0
168 0 0 0
173 0 0 0
175 0 0 0
237 0 0 0
238 0 0 0
239 0 0 0
240 0 0 0
245 0 0 0
247 0 0 0
30 0 0 0
32 0 0 0
37 0 0 0
38 0 0 0
39 0 0 0
40 0 0 0
102 0 0 0
104 0 0 0
109 0 0 0
110 0 0 0
111 0 0 0
112 0 0 0
174 0 0 0
176 0 0 0
181 0 0 0
182 0 0 0
183 0 0 0
184 0 0 0
246 0 0 0
248 0 0 0
253 0 0 0
254 0 0 0
255 0 0 0
256 0 0 0
45 0 0 0
46 0 0 0
47 0 0 0
48 0 0 0
117 0 0 0
118 0 0 0
119 0 0 0
120 0 0 0
189 0 0 0
190 0 0 0
191 0 0 0
192 0 0 0
261 0 0 0
262 0 0 0
263 0 0 0
264 0 0 0
53 0 0 0
54 0 0 0
55 0 0 0
56 0 0 0
61 0 0 0
63 0 0 0
125 0 0 0
126 0 0 0
127 0 0 0
128 0 0 0
133 0 0 0
135 0 0 0
197 0 0 0
198 0 0 0
199 0 0 0
200 0 0 0
205 0 0 0
207 0 0 0
269 0 0 0
270 0 0 0
271 0 0 0
272 0 0 0
277 0 0 0
279 0 0 0
62 0 0 0
64 0 0 0
69 0 0 0
70 0 0 0
71 0 0 0
72 0 0 0
134 0 0 0
136 0 0 0
141 0 0 0
142 0 0 0
143 0 0 0
144 0 0 0
206 0 0 0
208 0 0 0
213 0 0 0
214 0 0 0
215 0 0 0
216 0 0 0
278 0 0 0
280 0 0 0
285 0 0 0
286 0 0 0
287 0 0 0
288 0 0 0
