LAMMPS data file via write_data, version 29 Aug 2024, timestep = 7, units = metal

240 atoms
1 atom types

0 13.98284573 xlo xhi
0 27.81841258 ylo yhi
0 8.07299975 zlo zhi

Masses

1 55.8

Atoms # atomic

14 1 1.104123392353 0.978309288037 6.019465798333 0 0 0
20 1 2.26936048991 1.511660948117 4.001215860833 0 0 0
119 1 2.269360541421952 4.034931482933533 8.037715735832995 0 0 0
162 1 4.599834824853 3.240284549262 8.037715735833 0 0 0
164 1 3.434597727296 2.374575787602 1.982965923333 0 0 0
165 1 1.104123392353 3.240284549262 1.982965923333 0 0 0
171 1 4.599834824853 0.978309288037 4.001215860833 0 0 0
207 1 4.599834824853 3.240284549262 4.001215860833 0 0 0
209 1 3.434597727296 2.374575787602 6.019465798333 0 0 0
210 1 1.104123392353 3.240284549262 6.019465798333 0 0 0
211 1 2.2693605414219666 4.034931482933539 4.001215860833 0 0 0
227 1 4.599834824853 0.978309288037 8.037715735833 0 0 0
230 1 1.104123392353 0.978309288037 1.982965923333 0 0 0
231 1 2.26936048991 1.511660948117 8.037715735833 0 0 0
16 1 8.095546257353 3.240284549262 6.019465798333 0 0 0
21 1 9.260783406421963 4.034931482933535 4.001215860832992 0 0 0
25 1 6.930309159796 2.374575787602 4.001215860833 0 0 0
124 1 8.095546257353 3.240284549262 1.982965923333 0 0 0
125 1 9.260783406421961 4.0349314829335325 8.037715735832998 0 0 0
159 1 8.095546257353 0.978309288037 6.019465798333 0 0 0
160 1 9.26078335491 1.511660948117 4.001215860833 0 0 0
163 1 5.765071973921955 4.034931482933543 1.9829659233330004 0 0 0
168 1 8.095546257353 0.978309288037 1.982965923333 0 0 0
169 1 9.26078335491 1.511660948117 8.037715735833 0 0 0
172 1 5.76507192241 1.511660948117 6.019465798333 0 0 0
206 1 6.930309159796 2.374575787602 8.037715735833 0 0 0
208 1 5.765071973921961 4.0349314829335405 6.019465798333001 0 0 0
228 1 5.76507192241 1.511660948117 1.982965923333 0 0 0
1 1 11.591257689853 3.240284549262 4.001215860833 0 0 0
7 1 12.756494838921965 4.03493148293354 6.019465798332989 0 0 0
11 1 10.426020592296 2.374575787602 6.019465798333 0 0 0
33 1 11.591257689853 0.978309288037 4.001215860833 0 0 0
36 1 12.75649478741 1.511660948117 6.019465798333 0 0 0
120 1 13.921732024796 2.374575787602 8.037715735833 0 0 0
121 1 11.591257689853 3.240284549262 8.037715735833 0 0 0
122 1 12.756494838921958 4.034931482933537 1.982965923333005 0 0 0
123 1 10.426020592296 2.374575787602 1.982965923333 0 0 0
166 1 12.75649478741 1.511660948117 1.982965923333 0 0 0
213 1 13.921732024796 2.374575787602 4.001215860833 0 0 0
233 1 11.591257689853 0.978309288037 8.037715735833 0 0 0
12 1 3.43459768336688 4.866195739008875 1.9829659233330106 0 0 0
19 1 1.1041233964034902 5.6686180587788115 1.9829659233329922 0 0 0
28 1 2.2693605412532247 6.481466083689726 8.037715735833004 0 0 0
31 1 4.5998348289035205 5.6686180587788035 8.037715735833 0 0 0
72 1 4.599834828903503 5.668618058778794 4.001215860832996 0 0 0
74 1 3.4345976833668757 4.866195739008874 6.019465798332992 0 0 0
75 1 1.104123396403486 5.6686180587787955 6.019465798333007 0 0 0
76 1 2.2693605412532505 6.481466083689723 4.001215860832997 0 0 0
106 1 4.599834828277667 8.106877949335605 4.001215860832991 0 0 0
108 1 3.4345976838467145 7.296810033359193 6.019465798332997 0 0 0
109 1 1.104123395777676 8.106877949335601 6.01946579833299 0 0 0
110 1 2.2693605407186705 8.91039697256697 4.001215860833014 0 0 0
201 1 4.599834828277669 8.106877949335596 8.037715735832998 0 0 0
203 1 3.434597683846725 7.296810033359188 1.982965923333006 0 0 0
204 1 1.104123395777667 8.106877949335583 1.982965923333012 0 0 0
205 1 2.2693605407186688 8.91039697256698 8.037715735832991 0 0 0
5 1 5.765071973753245 6.481466083689721 1.982965923333 0 0 0
69 1 8.095546261403507 5.668618058778806 1.9829659233330044 0 0 0
70 1 9.260783406253232 6.481466083689725 8.037715735833013 0 0 0
71 1 6.930309115866873 4.866195739008887 8.037715735833004 0 0 0
73 1 5.765071973753234 6.48146608368972 6.019465798333004 0 0 0
81 1 8.095546261403506 5.668618058778788 6.019465798333 0 0 0
107 1 5.765071973218661 8.910396972566975 6.019465798333 0 0 0
130 1 8.095546260777681 8.106877949335587 1.9829659233330004 0 0 0
131 1 9.260783405718659 8.910396972566978 8.037715735832988 0 0 0
132 1 6.9303091163467245 7.296810033359174 8.037715735833006 0 0 0
188 1 8.095546260777681 8.106877949335619 6.01946579833301 0 0 0
189 1 9.260783405718659 8.910396972566975 4.001215860833002 0 0 0
190 1 6.930309116346722 7.296810033359179 4.001215860832986 0 0 0
199 1 9.260783406253239 6.481466083689715 4.001215860832986 0 0 0
200 1 6.930309115866877 4.8661957390088855 4.001215860832995 0 0 0
202 1 5.765071973218646 8.91039697256697 1.982965923333012 0 0 0
32 1 13.921731980866879 4.8661957390089094 8.037715735832998 0 0 0
35 1 11.59125769390352 5.668618058778801 8.037715735832998 0 0 0
38 1 12.756494838753264 6.481466083689714 1.982965923332992 0 0 0
68 1 10.426020548366871 4.8661957390088695 1.982965923333011 0 0 0
77 1 13.921731980866877 4.866195739008874 4.001215860833004 0 0 0
78 1 11.591257693903502 5.668618058778805 4.001215860833002 0 0 0
79 1 12.75649483875325 6.481466083689728 6.019465798333005 0 0 0
80 1 10.426020548366877 4.866195739008863 6.019465798332996 0 0 0
111 1 13.921731981346712 7.296810033359198 4.001215860832997 0 0 0
112 1 11.591257693277678 8.106877949335589 4.001215860833014 0 0 0
126 1 13.921731981346714 7.296810033359147 8.037715735833002 0 0 0
127 1 11.591257693277672 8.106877949335594 8.03771573583299 0 0 0
128 1 12.756494838218655 8.910396972566978 1.9829659233330146 0 0 0
129 1 10.426020548846706 7.296810033359192 1.9829659233330061 0 0 0
186 1 12.756494838218659 8.910396972566966 6.019465798332995 0 0 0
187 1 10.426020548846736 7.296810033359218 6.019465798332989 0 0 0
51 1 4.599834827585177 10.636342446662312 4.001215860832998 0 0 0
53 1 3.4345976829306553 9.734289276098426 6.01946579833299 0 0 0
54 1 1.1041233950851757 10.63634244666232 6.019465798332998 0 0 0
64 1 3.4345976833455896 12.048162259411198 6.0194657983329956 0 0 0
152 1 3.43459768293068 9.734289276098437 1.9829659233330046 0 0 0
153 1 1.1041233950851699 10.636342446662322 1.9829659233330008 0 0 0
154 1 2.2693605395007346 11.322228954456403 8.037715735832997 0 0 0
177 1 2.2693605395007364 11.322228954456403 4.001215860833004 0 0 0
191 1 4.599834827585169 10.63634244666232 8.037715735833006 0 0 0
195 1 3.4345976833455842 12.048162259411194 1.982965923333006 0 0 0
3 1 6.9303091154306635 9.734289276098439 4.001215860833003 0 0 0
40 1 6.930309115845581 12.048162259411193 8.037715735832998 0 0 0
48 1 8.095546260085179 10.636342446662315 1.9829659233329995 0 0 0
49 1 9.260783404500733 11.32222895445639 8.037715735832998 0 0 0
50 1 6.930309115430681 9.734289276098444 8.03771573583299 0 0 0
52 1 5.76507197200073 11.322228954456403 6.019465798332996 0 0 0
98 1 6.930309115845583 12.048162259411189 4.001215860833004 0 0 0
184 1 8.095546260085186 10.636342446662312 6.0194657983330035 0 0 0
185 1 9.260783404500728 11.3222289544564 4.0012158608330095 0 0 0
192 1 5.76507197200073 11.322228954456406 1.9829659233330057 0 0 0
34 1 10.426020548345583 12.048162259411189 1.9829659233330006 0 0 0
66 1 13.921731980845585 12.048162259411196 4.001215860832999 0 0 0
96 1 10.426020548345582 12.048162259411194 6.019465798332995 0 0 0
155 1 13.921731980430659 9.734289276098457 8.03771573583299 0 0 0
156 1 11.591257692585174 10.63634244666232 8.037715735832997 0 0 0
157 1 12.75649483700073 11.322228954456396 1.9829659233330026 0 0 0
158 1 10.426020547930664 9.734289276098439 1.9829659233329906 0 0 0
179 1 13.921731980430655 9.734289276098421 4.001215860833 0 0 0
181 1 11.591257692585183 10.636342446662319 4.001215860833 0 0 0
182 1 12.756494837000739 11.322228954456401 6.019465798333002 0 0 0
183 1 10.426020547930651 9.734289276098428 6.019465798333011 0 0 0
197 1 13.921731980845582 12.048162259411193 8.037715735832997 0 0 0
63 1 2.2693605311208502 16.37672716724846 4.001215860833 0 0 0
65 1 4.599834820460923 17.09019770539334 4.001215860833 0 0 0
67 1 1.1041233879609207 17.090197705393344 6.019465798332999 0 0 0
90 1 3.4345976757885666 17.790288977652946 1.9829659233330024 0 0 0
175 1 3.4345976757885723 17.790288977652942 6.019465798333001 0 0 0
194 1 2.269360531120855 16.376727167248458 8.037715735833 0 0 0
196 1 4.599834820460919 17.090197705393344 8.037715735833 0 0 0
198 1 1.1041233879609225 17.090197705393347 1.9829659233330086 0 0 0
24 1 9.260783396120864 16.37672716724845 8.037715735833 0 0 0
41 1 8.09554625296091 17.09019770539335 1.9829659233330024 0 0 0
46 1 6.930309108288573 17.79028897765295 4.001215860832992 0 0 0
62 1 5.765071963620858 16.37672716724846 6.019465798333005 0 0 0
95 1 9.26078339612086 16.376727167248458 4.001215860833001 0 0 0
99 1 8.09554625296092 17.09019770539334 6.019465798332993 0 0 0
104 1 6.9303091082885695 17.79028897765295 8.037715735833018 0 0 0
193 1 5.765071963620861 16.37672716724847 1.9829659233329964 0 0 0
9 1 12.756494828620863 16.376727167248465 1.9829659233329995 0 0 0
39 1 11.591257685460919 17.090197705393354 8.037715735832997 0 0 0
44 1 10.426020540788574 17.790288977652942 6.019465798333009 0 0 0
92 1 13.92173197328856 17.790288977652946 8.037715735832998 0 0 0
94 1 12.756494828620857 16.376727167248465 6.019465798332998 0 0 0
97 1 11.591257685460919 17.090197705393344 4.0012158608330015 0 0 0
102 1 10.426020540788564 17.790288977652946 1.9829659233330013 0 0 0
178 1 13.921731973288571 17.79028897765295 4.00121586083299 0 0 0
89 1 2.2693605335274882 18.69585232844997 8.037715735832993 0 0 0
91 1 4.599834821415205 19.508413817871226 8.037715735833006 0 0 0
93 1 1.1041233889152031 19.508413817871237 1.9829659233330044 0 0 0
114 1 2.2693605360696525 21.12928282706121 8.037715735833006 0 0 0
115 1 3.4345976779912135 20.316435937254113 1.982965923332999 0 0 0
116 1 4.599834824464825 21.93726822481978 8.037715735832997 0 0 0
118 1 1.1041233919648341 21.937268224819768 1.9829659233330132 0 0 0
134 1 2.2693605360696565 21.12928282706124 4.001215860832991 0 0 0
135 1 3.4345976779912273 20.316435937254106 6.019465798333 0 0 0
136 1 4.5998348244648195 21.937268224819785 4.001215860833003 0 0 0
138 1 1.1041233919648257 21.93726822481978 6.019465798332994 0 0 0
174 1 2.269360533527483 18.695852328449945 4.001215860832987 0 0 0
176 1 4.59983482141521 19.50841381787123 4.001215860833013 0 0 0
180 1 1.1041233889152082 19.508413817871233 6.019465798333013 0 0 0
222 1 3.4345976808218097 22.75794304823445 1.9829659233330148 0 0 0
224 1 3.4345976808218217 22.757943048234466 6.0194657983329956 0 0 0
23 1 6.93030911332182 22.757943048234473 4.001215860832996 0 0 0
43 1 9.260783398527476 18.69585232844996 4.0012158608330015 0 0 0
47 1 8.095546253915204 19.508413817871244 6.019465798332995 0 0 0
83 1 9.260783401069647 21.12928282706123 4.001215860833011 0 0 0
86 1 6.930309110491226 20.31643593725409 4.00121586083301 0 0 0
87 1 8.095546256964834 21.937268224819764 6.019465798332993 0 0 0
88 1 5.7650719660275005 18.69585232844995 1.9829659233329908 0 0 0
101 1 9.260783398527492 18.695852328449973 8.037715735833 0 0 0
105 1 8.095546253915193 19.50841381787121 1.982965923332991 0 0 0
113 1 5.765071968569652 21.12928282706123 1.9829659233329893 0 0 0
133 1 5.765071968569643 21.12928282706122 6.019465798332995 0 0 0
147 1 9.260783401069654 21.129282827061214 8.037715735832998 0 0 0
150 1 6.930309110491231 20.316435937254106 8.037715735833007 0 0 0
151 1 8.095546256964818 21.937268224819785 1.9829659233329957 0 0 0
173 1 5.765071966027483 18.69585232844997 6.01946579833299 0 0 0
217 1 6.930309113321806 22.757943048234456 8.03771573583301 0 0 0
15 1 10.426020545821805 22.757943048234466 6.01946579833301 0 0 0
42 1 12.75649483102749 18.695852328449952 6.019465798333007 0 0 0
45 1 11.59125768641522 19.508413817871237 4.001215860832993 0 0 0
56 1 13.921731978321805 22.757943048234477 8.037715735832995 0 0 0
60 1 10.42602054582182 22.75794304823446 1.9829659233329913 0 0 0
82 1 12.756494833569658 21.12928282706123 6.019465798333 0 0 0
84 1 10.42602054299121 20.31643593725411 6.019465798333008 0 0 0
85 1 11.591257689464832 21.937268224819768 4.001215860832986 0 0 0
100 1 12.756494831027492 18.695852328449977 1.9829659233330013 0 0 0
103 1 11.591257686415199 19.508413817871215 8.037715735833 0 0 0
117 1 13.921731975491232 20.316435937254102 8.037715735833 0 0 0
137 1 13.92173197549121 20.316435937254106 4.001215860832984 0 0 0
146 1 12.756494833569654 21.129282827061225 1.9829659233330152 0 0 0
148 1 10.426020542991228 20.31643593725411 1.9829659233329895 0 0 0
149 1 11.591257689464824 21.93726822481979 8.037715735833004 0 0 0
226 1 13.921731978321814 22.757943048234463 4.0012158608330015 0 0 0
2 1 1.104123392353 24.362058453958 6.019465798333 0 0 0
4 1 3.434597727296 27.71037779161 6.019465798333 0 0 0
13 1 2.26936048991 26.090681807918 8.037715735833 0 0 0
17 1 3.434597727296 25.227767215617 1.982965923333 0 0 0
22 1 4.599834824853 26.624033467998 8.037715735833 0 0 0
30 1 1.104123392353 26.624033467998 1.982965923333 0 0 0
55 1 4.599834824853 24.362058453958 8.037715735833 0 0 0
57 1 1.104123392353 24.362058453958 1.982965923333 0 0 0
139 1 2.26936048991 26.090681807918 4.001215860833 0 0 0
140 1 3.434597727296 25.227767215617 6.019465798333 0 0 0
141 1 4.599834824853 26.624033467998 4.001215860833 0 0 0
143 1 1.104123392353 26.624033467998 6.019465798333 0 0 0
220 1 2.269360540321634 23.567468796038163 8.037715735832993 0 0 0
223 1 2.269360540321633 23.567468796038145 4.001215860833001 0 0 0
225 1 4.599834824853 24.362058453958 4.001215860833 0 0 0
229 1 3.434597727296 27.71037779161 1.982965923333 0 0 0
8 1 5.76507192241 26.090681807918 1.982965923333 0 0 0
10 1 9.260783405321622 23.567468796038145 4.001215860833004 0 0 0
27 1 8.095546257353 24.362058453958 6.019465798333 0 0 0
59 1 9.260783405321641 23.567468796038145 8.037715735832998 0 0 0
145 1 9.26078335491 26.090681807918 4.001215860833 0 0 0
161 1 6.930309159796 27.71037779161 4.001215860833 0 0 0
170 1 6.930309159796 27.71037779161 8.037715735833 0 0 0
215 1 6.930309159796 25.227767215617 4.001215860833 0 0 0
216 1 8.095546257353 26.624033467998 6.019465798333 0 0 0
218 1 5.765071972821637 23.567468796038145 1.9829659233330006 0 0 0
219 1 8.095546257353 24.362058453958 1.982965923333 0 0 0
221 1 5.765071972821621 23.567468796038153 6.019465798332995 0 0 0
235 1 9.26078335491 26.090681807918 8.037715735833 0 0 0
238 1 6.930309159796 25.227767215617 8.037715735833 0 0 0
239 1 8.095546257353 26.624033467998 1.982965923333 0 0 0
240 1 5.76507192241 26.090681807918 6.019465798333 0 0 0
6 1 12.756494837821636 23.567468796038145 6.019465798333003 0 0 0
18 1 11.591257689853 24.362058453958 4.001215860833 0 0 0
26 1 13.921732024796 25.227767215617 8.037715735833 0 0 0
29 1 13.921732024796 27.71037779161 4.001215860833 0 0 0
37 1 10.426020592296 27.71037779161 6.019465798333 0 0 0
58 1 12.75649483782163 23.567468796038142 1.9829659233329984 0 0 0
61 1 11.591257689853 24.362058453958 8.037715735833 0 0 0
142 1 13.921732024796 25.227767215617 4.001215860833 0 0 0
144 1 12.75649478741 26.090681807918 6.019465798333 0 0 0
167 1 10.426020592296 27.71037779161 1.982965923333 0 0 0
212 1 10.426020592296 25.227767215617 6.019465798333 0 0 0
214 1 11.591257689853 26.624033467998 4.001215860833 0 0 0
232 1 13.921732024796 27.71037779161 8.037715735833 0 0 0
234 1 12.75649478741 26.090681807918 1.982965923333 0 0 0
236 1 10.426020592296 25.227767215617 1.982965923333 0 0 0
237 1 11.591257689853 26.624033467998 8.037715735833 0 0 0

Velocities

14 0 0 0
20 0 0 0
119 0 0 0
162 0 0 0
164 0 0 0
165 0 0 0
171 0 0 0
207 0 0 0
209 0 0 0
210 0 0 0
211 0 0 0
227 0 0 0
230 0 0 0
231 0 0 0
16 0 0 0
21 0 0 0
25 0 0 0
124 0 0 0
125 0 0 0
159 0 0 0
160 0 0 0
163 0 0 0
168 0 0 0
169 0 0 0
172 0 0 0
206 0 0 0
208 0 0 0
228 0 0 0
1 0 0 0
7 0 0 0
11 0 0 0
33 0 0 0
36 0 0 0
120 0 0 0
121 0 0 0
122 0 0 0
123 0 0 0
166 0 0 0
213 0 0 0
233 0 0 0
12 0 0 0
19 0 0 0
28 0 0 0
31 0 0 0
72 0 0 0
74 0 0 0
75 0 0 0
76 0 0 0
106 0 0 0
108 0 0 0
109 0 0 0
110 0 0 0
201 0 0 0
203 0 0 0
204 0 0 0
205 0 0 0
5 0 0 0
69 0 0 0
70 0 0 0
71 0 0 0
73 0 0 0
81 0 0 0
107 0 0 0
130 0 0 0
131 0 0 0
132 0 0 0
188 0 0 0
189 0 0 0
190 0 0 0
199 0 0 0
200 0 0 0
202 0 0 0
32 0 0 0
35 0 0 0
38 0 0 0
68 0 0 0
77 0 0 0
78 0 0 0
79 0 0 0
80 0 0 0
111 0 0 0
112 0 0 0
126 0 0 0
127 0 0 0
128 0 0 0
129 0 0 0
186 0 0 0
187 0 0 0
51 0 0 0
53 0 0 0
54 0 0 0
64 0 0 0
152 0 0 0
153 0 0 0
154 0 0 0
177 0 0 0
191 0 0 0
195 0 0 0
3 0 0 0
40 0 0 0
48 0 0 0
49 0 0 0
50 0 0 0
52 0 0 0
98 0 0 0
184 0 0 0
185 0 0 0
192 0 0 0
34 0 0 0
66 0 0 0
96 0 0 0
155 0 0 0
156 0 0 0
157 0 0 0
158 0 0 0
179 0 0 0
181 0 0 0
182 0 0 0
183 0 0 0
197 0 0 0
63 0 0 0
65 0 0 0
67 0 0 0
90 0 0 0
175 0 0 0
194 0 0 0
196 0 0 0
198 0 0 0
24 0 0 0
41 0 0 0
46 0 0 0
62 0 0 0
95 0 0 0
99 0 0 0
104 0 0 0
193 0 0 0
9 0 0 0
39 0 0 0
44 0 0 0
92 0 0 0
94 0 0 0
97 0 0 0
102 0 0 0
178 0 0 0
89 0 0 0
91 0 0 0
93 0 0 0
114 0 0 0
115 0 0 0
116 0 0 0
118 0 0 0
134 0 0 0
135 0 0 0
136 0 0 0
138 0 0 0
174 0 0 0
176 0 0 0
180 0 0 0
222 0 0 0
224 0 0 0
23 0 0 0
43 0 0 0
47 0 0 0
83 0 0 0
86 0 0 0
87 0 0 0
88 0 0 0
101 0 0 0
105 0 0 0
113 0 0 0
133 0 0 0
147 0 0 0
150 0 0 0
151 0 0 0
173 0 0 0
217 0 0 0
15 0 0 0
42 0 0 0
45 0 0 0
56 0 0 0
60 0 0 0
82 0 0 0
84 0 0 0
85 0 0 0
100 0 0 0
103 0 0 0
117 0 0 0
137 0 0 0
146 0 0 0
148 0 0 0
149 0 0 0
226 0 0 0
2 0 0 0
4 0 0 0
13 0 0 0
17 0 0 0
22 0 0 0
30 0 0 0
55 0 0 0
57 0 0 0
139 0 0 0
140 0 0 0
141 0 0 0
143 0 0 0
220 0 0 0
223 0 0 0
225 0 0 0
229 0 0 0
8 0 0 0
10 0 0 0
27 0 0 0
59 0 0 0
145 0 0 0
161 0 0 0
170 0 0 0
215 0 0 0
216 0 0 0
218 0 0 0
219 0 0 0
221 0 0 0
235 0 0 0
238 0 0 0
239 0 0 0
240 0 0 0
6 0 0 0
18 0 0 0
26 0 0 0
29 0 0 0
37 0 0 0
58 0 0 0
61 0 0 0
142 0 0 0
144 0 0 0
167 0 0 0
212 0 0 0
214 0 0 0
232 0 0 0
234 0 0 0
236 0 0 0
237 0 0 0
