LAMMPS data file via write_data, version 29 Aug 2024, timestep = 25, units = metal

240 atoms
1 atom types

0 13.98284573 xlo xhi
0 26.81841258 ylo yhi
0 8.07299975 zlo zhi

Masses

1 55.8

Atoms # atomic

14 1 1.104123392353 0.978309288037 6.019465798333 0 0 0
20 1 2.26936048991 1.511660948117 4.001215860833 0 0 0
119 1 2.2693605688154346 4.183827008130932 8.037715735841948 0 0 0
162 1 4.599834824853 3.240284549262 8.037715735833 0 0 0
164 1 3.434597727296 2.374575787602 1.982965923333 0 0 0
165 1 1.104123392353 3.240284549262 1.982965923333 0 0 0
171 1 4.599834824853 0.978309288037 4.001215860833 0 0 0
207 1 4.599834824853 3.240284549262 4.001215860833 0 0 0
209 1 3.434597727296 2.374575787602 6.019465798333 0 0 0
210 1 1.104123392353 3.240284549262 6.019465798333 0 0 0
211 1 2.2693605687868574 4.183827008139979 4.001215860878024 0 0 0
227 1 4.599834824853 0.978309288037 8.037715735833 0 0 0
230 1 1.104123392353 0.978309288037 1.982965923333 0 0 0
231 1 2.26936048991 1.511660948117 8.037715735833 0 0 0
16 1 8.095546257353 3.240284549262 6.019465798333 0 0 0
21 1 9.260783433793659 4.1838270081345765 4.001215860836691 0 0 0
25 1 6.930309159796 2.374575787602 4.001215860833 0 0 0
124 1 8.095546257353 3.240284549262 1.982965923333 0 0 0
125 1 9.260783433767141 4.183827008125913 8.03771573588341 0 0 0
159 1 8.095546257353 0.978309288037 6.019465798333 0 0 0
160 1 9.26078335491 1.511660948117 4.001215860833 0 0 0
163 1 5.765072001257286 4.18382700812349 1.982965923350558 0 0 0
168 1 8.095546257353 0.978309288037 1.982965923333 0 0 0
169 1 9.26078335491 1.511660948117 8.037715735833 0 0 0
172 1 5.76507192241 1.511660948117 6.019465798333 0 0 0
206 1 6.930309159796 2.374575787602 8.037715735833 0 0 0
208 1 5.765072001328363 4.183827008131541 6.019465798340372 0 0 0
228 1 5.76507192241 1.511660948117 1.982965923333 0 0 0
1 1 11.591257689853 3.240284549262 4.001215860833 0 0 0
7 1 12.756494866253039 4.18382700814193 6.019465798277541 0 0 0
11 1 10.426020592296 2.374575787602 6.019465798333 0 0 0
33 1 11.591257689853 0.978309288037 4.001215860833 0 0 0
36 1 12.75649478741 1.511660948117 6.019465798333 0 0 0
120 1 13.921732024796 2.374575787602 8.037715735833 0 0 0
121 1 11.591257689853 3.240284549262 8.037715735833 0 0 0
122 1 12.756494866324987 4.1838270081336315 1.9829659232555863 0 0 0
123 1 10.426020592296 2.374575787602 1.982965923333 0 0 0
166 1 12.75649478741 1.511660948117 1.982965923333 0 0 0
213 1 13.921732024796 2.374575787602 4.001215860833 0 0 0
233 1 11.591257689853 0.978309288037 8.037715735833 0 0 0
12 1 3.434597664078614 5.0817622127205455 1.982965923273851 0 0 0
19 1 1.1041233317479635 5.941298237867638 1.9829659231826011 0 0 0
28 1 2.26936075538539 6.822546331115488 8.037715735961601 0 0 0
31 1 4.599834764263855 5.941298237864931 8.037715735948222 0 0 0
72 1 4.599834764305366 5.941298237868759 4.001215860835537 0 0 0
74 1 3.4345976639526437 5.0817622127092115 6.019465798289292 0 0 0
75 1 1.1041233319018018 5.941298237872072 6.019465798146718 0 0 0
76 1 2.269360755332354 6.822546331105025 4.001215861066557 0 0 0
106 1 4.599835268597177 8.605440594937523 4.001215860925501 0 0 0
108 1 3.4345973398500784 7.6988556535000665 6.019465798183091 0 0 0
109 1 1.1041238361436305 8.6054405949335 6.0194657982332815 0 0 0
110 1 2.269360095502237 9.486077527419223 4.001215860937857 0 0 0
201 1 4.599835268530804 8.605440594942076 8.037715736016048 0 0 0
203 1 3.434597340046971 7.698855653486171 1.982965923148392 0 0 0
204 1 1.1041238359860066 8.605440594938912 1.9829659232631174 0 0 0
205 1 2.269360095550729 9.486077527415251 8.037715735866193 0 0 0
5 1 5.76507218777038 6.822546331118674 1.9829659232971617 0 0 0
69 1 8.095546196879893 5.941298237866427 1.9829659233408894 0 0 0
70 1 9.260783620297417 6.822546331115725 8.037715735862756 0 0 0
71 1 6.930309096567304 5.0817622127224045 8.037715735760406 0 0 0
73 1 5.7650721879945594 6.82254633110977 6.019465798263473 0 0 0
81 1 8.095546196669297 5.941298237871201 6.019465798387148 0 0 0
107 1 5.765071528101962 9.486077527420754 6.019465798212159 0 0 0
130 1 8.0955467011061 8.605440594938177 1.9829659232855663 0 0 0
131 1 9.260782960537759 9.48607752742428 8.037715735878818 0 0 0
132 1 6.930308772507612 7.698855653485413 8.037715735818605 0 0 0
188 1 8.095546700963345 8.605440594932375 6.019465798322424 0 0 0
189 1 9.260782960576723 9.486077527427295 4.001215860820088 0 0 0
190 1 6.930308772424863 7.698855653499354 4.001215860933418 0 0 0
199 1 9.260783620398376 6.822546331106083 4.001215860739259 0 0 0
200 1 6.930309096528111 5.081762212711462 4.0012158608554795 0 0 0
202 1 5.765071527993647 9.486077527417692 1.9829659232443735 0 0 0
32 1 13.921731961478251 5.081762212711018 8.037715735995116 0 0 0
35 1 11.591257629363461 5.941298237870217 8.037715735862776 0 0 0
38 1 12.756495052909651 6.822546331112509 1.9829659232085979 0 0 0
68 1 10.426020528967914 5.081762212713931 1.9829659233025363 0 0 0
77 1 13.921731961546584 5.081762212700608 4.001215860930255 0 0 0
78 1 11.591257629264373 5.941298237874595 4.001215860961165 0 0 0
79 1 12.75649505273705 6.822546331103093 6.01946579826279 0 0 0
80 1 10.42602052911978 5.081762212702956 6.0194657982565944 0 0 0
111 1 13.921731637509723 7.698855653508026 4.001215860880285 0 0 0
112 1 11.591258133511023 8.605440594928373 4.001215860848888 0 0 0
126 1 13.921731637450021 7.698855653494836 8.037715735978558 0 0 0
127 1 11.591258133561835 8.605440594933588 8.037715735766572 0 0 0
128 1 12.756494393094966 9.486077527421205 1.9829659233439363 0 0 0
129 1 10.426020204912973 7.698855653493165 1.982965923386288 0 0 0
186 1 12.756494392978379 9.486077527424705 6.0194657983629885 0 0 0
187 1 10.4260202050841 7.698855653506578 6.019465798337647 0 0 0
51 1 4.599834637547991 11.25978911821422 4.00121586085156 0 0 0
53 1 3.434597987482569 10.364635443777276 6.019465798296572 0 0 0
54 1 1.1041232050511556 11.259789118212906 6.019465798333233 0 0 0
64 1 3.434597659079315 13.317250343838728 6.019465798334474 0 0 0
152 1 3.4345979875513386 10.364635443780525 1.9829659232781658 0 0 0
153 1 1.1041232050122558 11.259789118212456 1.982965923343014 0 0 0
154 1 2.2693606228023726 12.058626829914669 8.037715735826296 0 0 0
177 1 2.2693606227956926 12.058626829913974 4.001215860834344 0 0 0
191 1 4.599834637531889 11.259789118213774 8.037715735872112 0 0 0
195 1 3.4345976590793343 13.317250343838392 1.9829659233343693 0 0 0
3 1 6.930309419992352 10.364635443772926 4.0012158609134385 0 0 0
40 1 6.930309091579188 13.317250343838909 8.037715735833888 0 0 0
48 1 8.095546070056109 11.259789118215133 1.9829659232961243 0 0 0
49 1 9.260783487799152 12.058626829910876 8.037715735850776 0 0 0
50 1 6.930309420019325 10.364635443776402 8.037715735877393 0 0 0
52 1 5.765072055304341 12.058626829911598 6.01946579831784 0 0 0
98 1 6.930309091579296 13.317250343839195 4.001215860833988 0 0 0
184 1 8.095546070020555 11.259789118215778 6.019465798303599 0 0 0
185 1 9.260783487803778 12.058626829910766 4.001215860842368 0 0 0
192 1 5.765072055291043 12.058626829911747 1.9829659233208758 0 0 0
34 1 10.426020524078423 13.317250343838966 1.9829659233314076 0 0 0
66 1 13.921731956578823 13.31725034383878 4.001215860832159 0 0 0
96 1 10.426020524078808 13.317250343839284 6.019465798331369 0 0 0
155 1 13.921732285012109 10.364635443777972 8.037715735843097 0 0 0
156 1 11.591257502536246 11.259789118214108 8.037715735821184 0 0 0
157 1 12.756494920310367 12.058626829913992 1.982965923334022 0 0 0
158 1 10.42602085247968 10.364635443774045 1.982965923332576 0 0 0
179 1 13.921732285038951 10.364635443774846 4.001215860800472 0 0 0
181 1 11.591257502523344 11.25978911821485 4.001215860843791 0 0 0
182 1 12.756494920295031 12.058626829913676 6.019465798337434 0 0 0
183 1 10.426020852547826 10.36463544377103 6.0194657983207716 0 0 0
197 1 13.921731956578547 13.317250343838495 8.037715735832323 0 0 0
63 1 2.269360604565916 14.573290461389712 4.00121586082837 0 0 0
65 1 4.599834647158856 15.366288130506405 4.001215860829851 0 0 0
67 1 1.104123214656647 15.366288130506689 6.01946579833597 0 0 0
89 1 2.269359880353449 17.142865833245285 8.037715735828082 0 0 0
90 1 3.434598080723274 16.261771497888034 1.9829659233374644 0 0 0
174 1 2.2693598803549704 17.142865833244425 4.001215860827314 0 0 0
175 1 3.434598080724926 16.261771497887942 6.019465798336725 0 0 0
194 1 2.269360604564068 14.573290461389549 8.037715735830824 0 0 0
196 1 4.599834647160028 15.3662881305062 8.037715735828339 0 0 0
198 1 1.1041232146595694 15.366288130506726 1.9829659233350914 0 0 0
24 1 9.260783469565649 14.573290461391066 8.037715735831146 0 0 0
41 1 8.095546079657888 15.366288130505843 1.9829659233339492 0 0 0
43 1 9.26078274536024 17.14286583324419 4.001215860833165 0 0 0
46 1 6.930309513221388 16.261771497888542 4.001215860831272 0 0 0
62 1 5.765072037062122 14.57329046139114 6.019465798338253 0 0 0
88 1 5.765071312857108 17.14286583324477 1.9829659233348744 0 0 0
95 1 9.260783469563753 14.573290461390604 4.001215860833901 0 0 0
99 1 8.095546079661121 15.366288130505867 6.019465798333497 0 0 0
101 1 9.260782745361436 17.14286583324413 8.037715735832613 0 0 0
104 1 6.930309513220962 16.26177149788803 8.037715735832364 0 0 0
173 1 5.76507131285638 17.142865833245164 6.01946579833419 0 0 0
193 1 5.765072037066575 14.573290461391467 1.9829659233372563 0 0 0
9 1 12.756494902063027 14.5732904613891 1.9829659233327444 0 0 0
39 1 11.591257512157092 15.366288130506328 8.037715735834324 0 0 0
42 1 12.756494177858855 17.142865833244393 6.019465798334048 0 0 0
44 1 10.426020945720502 16.261771497889146 6.0194657983336555 0 0 0
92 1 13.921732378225324 16.261771497888734 8.037715735830703 0 0 0
94 1 12.756494902067697 14.573290461388819 6.0194657983315025 0 0 0
97 1 11.591257512159029 15.366288130506256 4.001215860832279 0 0 0
100 1 12.756494177857608 17.142865833243913 1.9829659233356074 0 0 0
102 1 10.426020945722554 16.261771497889164 1.9829659233323917 0 0 0
178 1 13.921732378223698 16.26177149788893 4.0012158608316355 0 0 0
91 1 4.59983564130186 18.021731067951443 8.037715735831062 0 0 0
93 1 1.1041242087992096 18.021731067952686 1.9829659233381767 0 0 0
114 1 2.269361482311845 19.798939171472213 8.037715735831053 0 0 0
115 1 3.4345967697160695 18.92977721902464 1.9829659233363175 0 0 0
116 1 4.599833986657374 20.693219784597474 8.037715735833567 0 0 0
118 1 1.1041225541594033 20.693219784596558 1.9829659233345776 0 0 0
134 1 2.269361482318176 19.798939171474498 4.0012158608306425 0 0 0
135 1 3.4345967697156405 18.929777219024068 6.019465798333778 0 0 0
136 1 4.599833986650072 20.69321978459673 4.0012158608327635 0 0 0
138 1 1.1041225541589479 20.693219784596387 6.01946579833606 0 0 0
176 1 4.599835641301493 18.02173106795216 4.001215860831228 0 0 0
180 1 1.1041242087982008 18.021731067952867 6.019465798340457 0 0 0
222 1 3.4345983310830603 21.550354048297567 1.9829659233347643 0 0 0
224 1 3.4345983310830186 21.550354048298164 6.019465798330823 0 0 0
23 1 6.930309763590775 21.55035404829786 4.001215860833275 0 0 0
47 1 8.095547073796707 18.02173106795217 6.019465798333307 0 0 0
83 1 9.260784347321446 19.79893917147321 4.0012158608302135 0 0 0
86 1 6.930308202214862 18.92977721902387 4.001215860833674 0 0 0
87 1 8.095545419146132 20.693219784597225 6.019465798334813 0 0 0
105 1 8.095547073796984 18.02173106795213 1.9829659233331085 0 0 0
113 1 5.765072914821028 19.798939171472234 1.9829659233313621 0 0 0
133 1 5.765072914823526 19.79893917147261 6.0194657983343784 0 0 0
147 1 9.260784347316683 19.798939171471755 8.03771573583235 0 0 0
150 1 6.930308202216041 18.92977721902674 8.03771573583238 0 0 0
151 1 8.095545419149913 20.693219784597286 1.982965923333556 0 0 0
217 1 6.930309763587265 21.550354048295212 8.037715735831453 0 0 0
15 1 10.426021196093075 21.550354048298004 6.019465798337546 0 0 0
45 1 11.591258506294668 18.021731067953706 4.001215860831072 0 0 0
56 1 13.921732628584424 21.550354048297763 8.037715735830872 0 0 0
60 1 10.426021196090408 21.550354048297223 1.9829659233402974 0 0 0
82 1 12.756495779811862 19.79893917147352 6.019465798341506 0 0 0
84 1 10.426019634722943 18.929777219023656 6.019465798333866 0 0 0
85 1 11.591256851650893 20.69321978459609 4.001215860826056 0 0 0
103 1 11.59125850629303 18.021731067952445 8.03771573583113 0 0 0
117 1 13.921731067224695 18.92977721902431 8.037715735825309 0 0 0
137 1 13.921731067220971 18.92977721902206 4.001215860825912 0 0 0
146 1 12.756495779811946 19.798939171473325 1.9829659233401449 0 0 0
148 1 10.426019634721879 18.929777219024427 1.982965923335882 0 0 0
149 1 11.591256851656222 20.69321978459725 8.03771573582524 0 0 0
226 1 13.921732628587044 21.55035404829997 4.001215860830935 0 0 0
2 1 1.104123392353 23.362058453958 6.019465798333 0 0 0
4 1 3.434597727296 26.71037779161 6.019465798333 0 0 0
13 1 2.26936048991 25.090681807918 8.037715735833 0 0 0
17 1 3.434597727296 24.227767215617 1.982965923333 0 0 0
22 1 4.599834824853 25.624033467998 8.037715735833 0 0 0
30 1 1.104123392353 25.624033467998 1.982965923333 0 0 0
55 1 4.599834824853 23.362058453958 8.037715735833 0 0 0
57 1 1.104123392353 23.362058453958 1.982965923333 0 0 0
139 1 2.26936048991 25.090681807918 4.001215860833 0 0 0
140 1 3.434597727296 24.227767215617 6.019465798333 0 0 0
141 1 4.599834824853 25.624033467998 4.001215860833 0 0 0
143 1 1.104123392353 25.624033467998 6.019465798333 0 0 0
220 1 2.269360229336181 22.41963920558927 8.037715735833137 0 0 0
223 1 2.2693602293364115 22.41963920558719 4.001215860833075 0 0 0
225 1 4.599834824853 23.362058453958 4.001215860833 0 0 0
229 1 3.434597727296 26.71037779161 1.982965923333 0 0 0
8 1 5.76507192241 25.090681807918 1.982965923333 0 0 0
10 1 9.260783094332492 22.419639205589455 4.001215860829345 0 0 0
27 1 8.095546257353 23.362058453958 6.019465798333 0 0 0
59 1 9.260783094332997 22.41963920559113 8.037715735830279 0 0 0
145 1 9.26078335491 25.090681807918 4.001215860833 0 0 0
161 1 6.930309159796 26.71037779161 4.001215860833 0 0 0
170 1 6.930309159796 26.71037779161 8.037715735833 0 0 0
215 1 6.930309159796 24.227767215617 4.001215860833 0 0 0
216 1 8.095546257353 25.624033467998 6.019465798333 0 0 0
218 1 5.7650716618356865 22.419639205590205 1.9829659233326742 0 0 0
219 1 8.095546257353 23.362058453958 1.982965923333 0 0 0
221 1 5.765071661836302 22.419639205589508 6.019465798334065 0 0 0
235 1 9.26078335491 25.090681807918 8.037715735833 0 0 0
238 1 6.930309159796 24.227767215617 8.037715735833 0 0 0
239 1 8.095546257353 25.624033467998 1.982965923333 0 0 0
240 1 5.76507192241 25.090681807918 6.019465798333 0 0 0
6 1 12.756494526832475 22.419639205588357 6.019465798334844 0 0 0
18 1 11.591257689853 23.362058453958 4.001215860833 0 0 0
26 1 13.921732024796 24.227767215617 8.037715735833 0 0 0
29 1 13.921732024796 26.71037779161 4.001215860833 0 0 0
37 1 10.426020592296 26.71037779161 6.019465798333 0 0 0
58 1 12.756494526833533 22.419639205588947 1.9829659233336192 0 0 0
61 1 11.591257689853 23.362058453958 8.037715735833 0 0 0
142 1 13.921732024796 24.227767215617 4.001215860833 0 0 0
144 1 12.75649478741 25.090681807918 6.019465798333 0 0 0
167 1 10.426020592296 26.71037779161 1.982965923333 0 0 0
212 1 10.426020592296 24.227767215617 6.019465798333 0 0 0
214 1 11.591257689853 25.624033467998 4.001215860833 0 0 0
232 1 13.921732024796 26.71037779161 8.037715735833 0 0 0
234 1 12.75649478741 25.090681807918 1.982965923333 0 0 0
236 1 10.426020592296 24.227767215617 1.982965923333 0 0 0
237 1 11.591257689853 25.624033467998 8.037715735833 0 0 0

Velocities

14 0 0 0
20 0 0 0
119 0 0 0
162 0 0 0
164 0 0 0
165 0 0 0
171 0 0 0
207 0 0 0
209 0 0 0
210 0 0 0
211 0 0 0
227 0 0 0
230 0 0 0
231 0 0 0
16 0 0 0
21 0 0 0
25 0 0 0
124 0 0 0
125 0 0 0
159 0 0 0
160 0 0 0
163 0 0 0
168 0 0 0
169 0 0 0
172 0 0 0
206 0 0 0
208 0 0 0
228 0 0 0
1 0 0 0
7 0 0 0
11 0 0 0
33 0 0 0
36 0 0 0
120 0 0 0
121 0 0 0
122 0 0 0
123 0 0 0
166 0 0 0
213 0 0 0
233 0 0 0
12 0 0 0
19 0 0 0
28 0 0 0
31 0 0 0
72 0 0 0
74 0 0 0
75 0 0 0
76 0 0 0
106 0 0 0
108 0 0 0
109 0 0 0
110 0 0 0
201 0 0 0
203 0 0 0
204 0 0 0
205 0 0 0
5 0 0 0
69 0 0 0
70 0 0 0
71 0 0 0
73 0 0 0
81 0 0 0
107 0 0 0
130 0 0 0
131 0 0 0
132 0 0 0
188 0 0 0
189 0 0 0
190 0 0 0
199 0 0 0
200 0 0 0
202 0 0 0
32 0 0 0
35 0 0 0
38 0 0 0
68 0 0 0
77 0 0 0
78 0 0 0
79 0 0 0
80 0 0 0
111 0 0 0
112 0 0 0
126 0 0 0
127 0 0 0
128 0 0 0
129 0 0 0
186 0 0 0
187 0 0 0
51 0 0 0
53 0 0 0
54 0 0 0
64 0 0 0
152 0 0 0
153 0 0 0
154 0 0 0
177 0 0 0
191 0 0 0
195 0 0 0
3 0 0 0
40 0 0 0
48 0 0 0
49 0 0 0
50 0 0 0
52 0 0 0
98 0 0 0
184 0 0 0
185 0 0 0
192 0 0 0
34 0 0 0
66 0 0 0
96 0 0 0
155 0 0 0
156 0 0 0
157 0 0 0
158 0 0 0
179 0 0 0
181 0 0 0
182 0 0 0
183 0 0 0
197 0 0 0
63 0 0 0
65 0 0 0
67 0 0 0
89 0 0 0
90 0 0 0
174 0 0 0
175 0 0 0
194 0 0 0
196 0 0 0
198 0 0 0
24 0 0 0
41 0 0 0
43 0 0 0
46 0 0 0
62 0 0 0
88 0 0 0
95 0 0 0
99 0 0 0
101 0 0 0
104 0 0 0
173 0 0 0
193 0 0 0
9 0 0 0
39 0 0 0
42 0 0 0
44 0 0 0
92 0 0 0
94 0 0 0
97 0 0 0
100 0 0 0
102 0 0 0
178 0 0 0
91 0 0 0
93 0 0 0
114 0 0 0
115 0 0 0
116 0 0 0
118 0 0 0
134 0 0 0
135 0 0 0
136 0 0 0
138 0 0 0
176 0 0 0
180 0 0 0
222 0 0 0
224 0 0 0
23 0 0 0
47 0 0 0
83 0 0 0
86 0 0 0
87 0 0 0
105 0 0 0
113 0 0 0
133 0 0 0
147 0 0 0
150 0 0 0
151 0 0 0
217 0 0 0
15 0 0 0
45 0 0 0
56 0 0 0
60 0 0 0
82 0 0 0
84 0 0 0
85 0 0 0
103 0 0 0
117 0 0 0
137 0 0 0
146 0 0 0
148 0 0 0
149 0 0 0
226 0 0 0
2 0 0 0
4 0 0 0
13 0 0 0
17 0 0 0
22 0 0 0
30 0 0 0
55 0 0 0
57 0 0 0
139 0 0 0
140 0 0 0
141 0 0 0
143 0 0 0
220 0 0 0
223 0 0 0
225 0 0 0
229 0 0 0
8 0 0 0
10 0 0 0
27 0 0 0
59 0 0 0
145 0 0 0
161 0 0 0
170 0 0 0
215 0 0 0
216 0 0 0
218 0 0 0
219 0 0 0
221 0 0 0
235 0 0 0
238 0 0 0
239 0 0 0
240 0 0 0
6 0 0 0
18 0 0 0
26 0 0 0
29 0 0 0
37 0 0 0
58 0 0 0
61 0 0 0
142 0 0 0
144 0 0 0
167 0 0 0
212 0 0 0
214 0 0 0
232 0 0 0
234 0 0 0
236 0 0 0
237 0 0 0
