LAMMPS (29 Aug 2024 - Update 1)
# LAMMPS input script to relax a molecule with fixed box dimensions
variable distFixed equal 4
variable ybottom equal ylo
variable ytop equal yhi
variable ybottomFixed equal v_ybottom+v_distFixed
variable ytopFixed equal v_ytop-v_distFixed

# Initialize simulation
dimension	3
units		metal
atom_style	atomic
boundary p f p

# Read data file
read_data initial.lmp
Reading data file ...
  orthogonal box = (0 0 0) to (14.073666 24.978962 8.1254349)
  1 by 1 by 1 MPI processor grid
  reading atoms ...
  255 atoms
  read_data CPU = 0.001 seconds

region 1 block INF INF ${ybottom} ${ybottomFixed} INF INF units box
region 1 block INF INF 0 ${ybottomFixed} INF INF units box
region 1 block INF INF 0 4 INF INF units box
group		lower region 1
40 atoms in group lower
region 2 block INF INF ${ytopFixed} ${ytop} INF INF units box
region 2 block INF INF 20.97896156 ${ytop} INF INF units box
region 2 block INF INF 20.97896156 24.97896156 INF INF units box
group		upper region 2
40 atoms in group upper
group		boundary union lower upper
80 atoms in group boundary
group		mobile subtract all boundary
175 atoms in group mobile

pair_style mlip ../mlip.ini
pair_coeff * *
mass 1 55.8
mass 2 1.0

# Minimize energy
fix		fflow lower setforce 0.0 0.0 0.0
fix		ffup upper setforce 0.0 0.0 0.0
min_style cg
minimize 1.0e-6 1.0e-10 1000 10000

CITE-CITE-CITE-CITE-CITE-CITE-CITE-CITE-CITE-CITE-CITE-CITE-CITE

Your simulation uses code contributions which should be cited:

- Type Label Framework: https://doi.org/10.1021/acs.jpcb.3c08419

@Article{Gissinger24,
 author = {Jacob R. Gissinger, Ilia Nikiforov, Yaser Afshar, Brendon Waters, Moon-ki Choi, Daniel S. Karls, Alexander Stukowski, Wonpil Im, Hendrik Heinz, Axel Kohlmeyer, and Ellad B. Tadmor},
 title = {Type Label Framework for Bonded Force Fields in LAMMPS},
 journal = {J. Phys. Chem. B},
 year =    2024,
 volume =  128,
 number =  13,
 pages =   {3282–-3297}
}

CITE-CITE-CITE-CITE-CITE-CITE-CITE-CITE-CITE-CITE-CITE-CITE-CITE

Neighbor list info ...
  update: every = 1 steps, delay = 0 steps, check = yes
  max neighbors/atom: 2000, page size: 100000
  master list distance cutoff = 8.5
  ghost atom cutoff = 8.5
  binsize = 4.25, bins = 4 6 2
  1 neighbor lists, perpetual/occasional/extra = 1 0 0
  (1) pair mlip, perpetual
      attributes: full, newton on
      pair build: full/bin/atomonly
      stencil: full/bin/3d
      bin: standard
Per MPI rank memory allocation (min/avg/max) = 4.261 | 4.261 | 4.261 Mbytes
   Step          Temp          E_pair         E_mol          TotEng         Press     
         0   0             -1975.855       0             -1975.855      -15722.528    
         7   0             -1976.3997      0             -1976.3997     -18548.21     
Loop time of 2.17265 on 1 procs for 7 steps with 255 atoms

99.8% CPU use with 1 MPI tasks x no OpenMP threads

Minimization stats:
  Stopping criterion = energy tolerance
  Energy initial, next-to-last, final = 
     -1975.85495844607  -1976.39788207306  -1976.39967530288
  Force two-norm initial, final = 3.0250811 0.12308024
  Force max component initial, final = 0.59714416 0.033073356
  Final line search alpha, max atom move = 1 0.033073356
  Iterations, force evaluations = 7 14

MPI task timing breakdown:
Section |  min time  |  avg time  |  max time  |%varavg| %total
---------------------------------------------------------------
Pair    | 2.1723     | 2.1723     | 2.1723     |   0.0 | 99.98
Neigh   | 0          | 0          | 0          |   0.0 |  0.00
Comm    | 0.00011699 | 0.00011699 | 0.00011699 |   0.0 |  0.01
Output  | 0          | 0          | 0          |   0.0 |  0.00
Modify  | 3.4192e-05 | 3.4192e-05 | 3.4192e-05 |   0.0 |  0.00
Other   |            | 0.0001918  |            |       |  0.01

Nlocal:            255 ave         255 max         255 min
Histogram: 1 0 0 0 0 0 0 0 0 0
Nghost:           1594 ave        1594 max        1594 min
Histogram: 1 0 0 0 0 0 0 0 0 0
Neighs:              0 ave           0 max           0 min
Histogram: 1 0 0 0 0 0 0 0 0 0
FullNghs:        51790 ave       51790 max       51790 min
Histogram: 1 0 0 0 0 0 0 0 0 0

Total # of neighbors = 51790
Ave neighs/atom = 203.09804
Neighbor list builds = 0
Dangerous builds = 0

# Write the relaxed structure to a data file
write_data relaxed.data
System init for write_data ...
Total wall time: 0:00:02
