 # File generated with Atomsk by user on 2025-06-01 23:03:48
  
         304  atoms
           2  atom types
 
      0.000000000000      11.398298670000  xlo xhi
      0.000000000000      28.546173280000  ylo yhi
      0.000000000000      11.398298670000  zlo zhi
 
Masses
 
            1   1.00800000              # H
            2   4.00260200              # He
 
Atoms # atomic
 
         1    1       11.355421347944      28.462240279321      11.363566458191
         2    1        1.387981087515       1.305325078672       1.388086065845
         3    1       11.361056210875      28.460536091107       2.809023738203
         4    1        1.395554915032       1.316686333435       4.229247421131
         5    1       11.369958852051      28.452819157567       5.666209277691
         6    1        1.396992696426       1.298139020919       7.089411450045
         7    1       11.369501894257      28.446936694802       8.514248480377
         8    1        1.382293792410       1.303698598362       9.940938646107
         9    1       11.360270868096       2.695361519381      11.367191345134
        10    1        1.403318524222       4.093027440180       1.384384468352
        11    1       11.360596175540       2.703837836112       2.812285817299
        12    1        1.381873081206       4.095151456251       4.222172953079
        13    1       11.357126305459       2.697252924661       5.658133697066
        14    1        1.394944992070       4.085492594470       7.083123008668
        15    1       11.364923311664       2.692355018488       8.508865405864
        16    1        1.398358326590       4.086331993722       9.946307472746
        17    1       11.360216156263       5.505230124917      11.348295701531
        18    1        1.374652372982       6.922314302277       1.393105990563
        19    1       11.370616077952       5.485777502484       2.794382509578
        20    1        1.380794688169       6.903521042959       4.218510565733
        21    1       11.359584804499       5.495938772800       5.663648991843
        22    1        1.395584778574       6.900583017348       7.092257377256
        23    1       11.372048730112       5.498741643077       8.518840626945
        24    1        1.373447230864       6.926891887745       9.931241885462
        25    1       11.363624019599       8.365250078764      11.373657144037
        26    1        1.382472289767       9.766323093683       1.391524134673
        27    1       11.344327725798       8.333148507208       2.810133248595
        28    1        1.367383221988       9.786896453888       4.215112276968
        29    1       11.340327150930       8.253479439298       5.634379756621
        30    1        1.361799423436       9.797894815299       7.149985542650
        31    1       11.353878360253       8.333120809340       8.525555934606
        32    1        1.394704601951       9.779385202658       9.931659405142
        33    1       11.369088022032      11.227004226848      11.383289390311
        34    1        1.376346844062      12.707789908170       1.386026963191
        35    1       11.357461643406      11.249218172758       2.790376691493
        36    1        1.371892616908      12.762536024886       4.188737525709
        37    1       11.342975773592      11.361454290268       5.582934789386
        38    1        1.336219019612      12.668959550131       7.096874828048
        39    1       11.360989074895      11.226026338261       8.539177129483
        40    1        1.384926115505      12.678805372514       9.956252488336
        41    1       11.394807257134      17.002570634475      11.341905929279
        42    1        1.422375111802      18.560746208287       1.382957059410
        43    1       11.380704142190      17.103359839004       2.757001219175
        44    1        1.387757566878      18.581352139133       4.205356929068
        45    1       11.338601562495      17.125817936483       5.567335533759
        46    1        1.400877692545      18.631312936376       7.070083354990
        47    1       11.339071742315      17.105018120568       8.602716489487
        48    1        1.389814389873      18.606290734492       9.951368089390
        49    1       11.355609191906      20.098541024656      11.329467991787
        50    1        1.389904322449      21.456140185401       1.397593842698
        51    1       11.379110090121      20.031377543761       2.793702145130
        52    1        1.387578385623      21.445007694503       4.230198381189
        53    1       11.352989634906      20.013619363997       5.648566877026
        54    1        1.391243394577      21.454893011994       7.066893313141
        55    1       11.366957452045      20.047255602562       8.509014267644
        56    1        1.392967957166      21.458795333720       9.929039164244
        57    1       11.366320743081      22.865623093462      11.361882359562
        58    1        1.386229282992      24.266553772119       1.382009290876
        59    1       11.354784069065      22.849013605799       2.804242607843
        60    1        1.386057282665      24.268131268237       4.226789264040
        61    1       11.353233102565      22.861337361445       5.647703797851
        62    1        1.388745343441      24.254241300789       7.076372480264
        63    1       11.361129501935      22.854299282112       8.503047486257
        64    1        1.380355397738      24.261721776611       9.939870625521
        65    1       11.353748191682      25.686326950746      11.359814936149
        66    1        1.386051811482      27.067450833318       1.377745073360
        67    1       11.354604773827      25.661398613857       2.807552445810
        68    1        1.382915797569      27.073872635107       4.234301768710
        69    1       11.354241851998      25.654621356106       5.657552839766
        70    1        1.388851233635      27.056547362748       7.078516842193
        71    1       11.353052553515      25.661306031171       8.515228050164
        72    1        1.394917750136      27.064151709587       9.935746721063
        73    1        2.823838220967      28.458554924221      11.362393915207
        74    1        4.252352798382       1.303938903006       1.380668167054
        75    1        2.818185462708      28.465820228649       2.792647346572
        76    1        4.243364897932       1.305828000130       4.223949947841
        77    1        2.819324266728      28.474699959686       5.667679316270
        78    1        4.237445419484       1.318366414246       7.091983590122
        79    1        2.816407898030      28.456096225589       8.522638312096
        80    1        4.234977117907       1.309146358491       9.937789524150
        81    1        2.817566877039       2.696401984631      11.359151897116
        82    1        4.246055694299       4.105308110255       1.377646136128
        83    1        2.818648461600       2.700776452408       2.796298677567
        84    1        4.239019410547       4.099519256022       4.231253293731
        85    1        2.815436079085       2.704622352553       5.655783367880
        86    1        4.236347991288       4.102526013378       7.090345198672
        87    1        2.821273831732       2.703956321433       8.519152028465
        88    1        4.243338909811       4.114189123600       9.931387669702
        89    1        2.808728408284       5.507443646133      11.361120383296
        90    1        4.233359585342       6.914641480155       1.379867436572
        91    1        2.824137882239       5.511381103117       2.796418815635
        92    1        4.244315857990       6.892555508649       4.221911020175
        93    1        2.800913734716       5.478665049249       5.661680049731
        94    1        4.223142606346       6.899126571167       7.073322637489
        95    1        2.820172300149       5.500028568053       8.514745560182
        96    1        4.223544624341       6.925429030021       9.932238438715
        97    1        2.796861981488       8.338159000081      11.362559988418
        98    1        4.238404700300       9.677052098498       1.390392967513
        99    1        2.797390634580       8.349761072411       2.812005305169
       100    1        4.211556235748       9.768810003106       4.178039538509
       101    1        2.800352140540       8.289055554411       5.629304778121
       102    1        4.277315642384       9.788592948250       7.179587038278
       103    1        2.808654547309       8.348780106283       8.532192024092
       104    1        4.228566258803       9.783052092513       9.955008364036
       105    1        2.770652733526      11.232872584218      11.343910662049
       106    1        4.241972139817      12.821003144883       1.377525542128
       107    1        2.776757548311      11.262024845847       2.828029261405
       108    1        4.233085456259      12.782991412694       4.149044546353
       109    1        2.720301661015      11.305515113572       5.615645740893
       110    1        4.295641826986      12.715618915487       7.185381021458
       111    1        2.815049220829      11.246781529834       8.546097264571
       112    1        4.220296907101      12.609635078561       9.949918909697
       113    1        2.766084979317      17.088326565150      11.380710297271
       114    1        4.221366523448      18.584578684193       1.375129619747
       115    1        2.802050031110      17.111498652094       2.774640770265
       116    1        4.218145364244      18.567076709700       4.204147113647
       117    1        2.792220252320      17.144260869074       5.569917704339
       118    1        4.190664636065      18.592534383606       7.093768905643
       119    1        2.798099038842      17.131857097367       8.601331710182
       120    1        4.221420893332      18.656459778662       9.931419356972
       121    1        2.806084230959      20.040085958360      11.370257601459
       122    1        4.218402737828      21.449354977336       1.383671846720
       123    1        2.791304968937      20.017283689235       2.787349075401
       124    1        4.240067484110      21.440592962235       4.217987611790
       125    1        2.814482611402      20.028053799704       5.650332701456
       126    1        4.242724997445      21.452883634318       7.080094480712
       127    1        2.805783087908      20.047779297421       8.511161821097
       128    1        4.232401444356      21.462849737254       9.938878745571
       129    1        2.810031119839      22.873415170289      11.363530097618
       130    1        4.230953632459      24.279441743577       1.377615132755
       131    1        2.814899561167      22.860466930324       2.795996394687
       132    1        4.234839198493      24.265308650406       4.228957448413
       133    1        2.819246758297      22.870471246058       5.638703017323
       134    1        4.234520502062      24.261258863183       7.093043175967
       135    1        2.814170753950      22.861463027694       8.503462840260
       136    1        4.232538679872      24.272231321959       9.934666162349
       137    1        2.802790008660      25.685380606952      11.342467523455
       138    1        4.245274340925      27.075512451427       1.377787019099
       139    1        2.805211007298      25.674165791839       2.802335102560
       140    1        4.236565014894      27.065510187386       4.237681592232
       141    1        2.803941806741      25.654385411311       5.657075023085
       142    1        4.232891229250      27.071844792186       7.098476858926
       143    1        2.810810421519      25.656765632654       8.503665843960
       144    1        4.239191296891      27.055478430245       9.925115641876
       145    1        5.675959838305      28.459792865005      11.356301296601
       146    1        7.083719709604       1.294151297436       1.390016481708
       147    1        5.668962878683      28.454309969620       2.822762221573
       148    1        7.094791105068       1.294446484890       4.239065801623
       149    1        5.662831619846      28.460801529000       5.667876278871
       150    1        7.093106208558       1.300620031722       7.091599581440
       151    1        5.661052345423      28.465074181469       8.506305575949
       152    1        7.085021395312       1.299874497465       9.928921191853
       153    1        5.660946911161       2.695916502571      11.343484137713
       154    1        7.090473087583       4.085281270003       1.375044588439
       155    1        5.671114421540       2.699088677744       2.810525008120
       156    1        7.089832731163       4.091232977436       4.238883428844
       157    1        5.668197482928       2.704061214281       5.656805339339
       158    1        7.093038616647       4.107474186050       7.092833447271
       159    1        5.666301603910       2.706308331984       8.510540955768
       160    1        7.091243498590       4.102065921029       9.931126078748
       161    1        5.667791589512       5.506726835590      11.355938602738
       162    1        7.084034188664       6.910012602339       1.383916112260
       163    1        5.667091278042       5.495383533148       2.793598534596
       164    1        7.093816550532       6.896838676049       4.214380848142
       165    1        5.658653231519       5.485323565217       5.646269207980
       166    1        7.087104890326       6.904620750869       7.084773482316
       167    1        5.657484108025       5.515380880302       8.506642623640
       168    1        7.089464794082       6.921019170526       9.934732842396
       169    1        5.649302523222       8.329239773938      11.351602233992
       170    1        7.101731187179       9.704320648699       1.399095112616
       171    1        5.666154223908       8.311234621525       2.812134447893
       172    1        7.106425576486       9.774424463360       4.208494880692
       173    1        5.694911333572       8.266100434093       5.657827082832
       174    1        7.106714751324       9.762695442472       7.102754526434
       175    1        5.650197289668       8.324360333010       8.523557242935
       176    1        7.082183674875       9.768351705989       9.963232806441
       177    1        5.634709623384      11.217106599194      11.343026837970
       178    1        7.116285218819      12.814451316995       1.386986130024
       179    1        5.634410873976      11.259651036048       2.839013003952
       180    1        7.085343055300      12.736228180335       4.199980807517
       181    1        5.761014056963      11.307983557750       5.661320433408
       182    1        7.054028281398      12.759801886353       7.130442247716
       183    1        5.689137753346      11.232588168156       8.533083940963
       184    1        7.057433181177      12.595820510862       9.969253501782
       185    1        5.687957687485      17.115241711084      11.388039403316
       186    1        7.083751852806      18.572590636955       1.405203346890
       187    1        5.638459891612      17.124033475746       2.790446107132
       188    1        7.000463800526      18.558074646417       4.204997654694
       189    1        5.644889329943      17.067325170313       5.586639578403
       190    1        7.105302046186      18.606731335749       7.094262679941
       191    1        5.662982305354      17.056939239520       8.620355470662
       192    1        7.051763781401      18.691481679970       9.959185384567
       193    1        5.644341413726      20.035946409531      11.385237131588
       194    1        7.070131911742      21.447395353236       1.391626719361
       195    1        5.630104824704      20.009982480164       2.803889146601
       196    1        7.077907489146      21.435428335860       4.224536732257
       197    1        5.641269230286      20.016385303785       5.638332116684
       198    1        7.066031145830      21.446156386605       7.087260933034
       199    1        5.649958039379      20.034232219309       8.515472429688
       200    1        7.072568754015      21.455674194432       9.937000761882
       201    1        5.650731869876      22.866536866616      11.372391021021
       202    1        7.084675342964      24.270846941526       1.377009883096
       203    1        5.657089726891      22.851227639938       2.793760048488
       204    1        7.083720051553      24.270408391963       4.218882948151
       205    1        5.658104061489      22.863076684917       5.645480559695
       206    1        7.087733734463      24.268518012530       7.083483878804
       207    1        5.664143905972      22.871874604660       8.524988413316
       208    1        7.085401642555      24.291198975256       9.937457149761
       209    1        5.664658425174      25.681157708060      11.350476879964
       210    1        7.076605803438      27.062160797155       1.395353165145
       211    1        5.650250519723      25.662683743600       2.791660367890
       212    1        7.082399558652      27.056043928366       4.236546321684
       213    1        5.650863862174      25.669469464588       5.658600457396
       214    1        7.089854843863      27.059161477190       7.080078637077
       215    1        5.667995505075      25.668904735852       8.505115707550
       216    1        7.093005105649      27.070179329693       9.922960451563
       217    1        8.504566993452      28.461158010809      11.356493813866
       218    1        9.927984479668       1.295656984269       1.395263232569
       219    1        8.501626004430      28.457278257715       2.821265852923
       220    1        9.938320570885       1.299355675379       4.243882152726
       221    1        8.509526849136      28.452932257191       5.663628360923
       222    1        9.940225226593       1.293882012616       7.094887192726
       223    1        8.524371765358      28.443952249617       8.498493068057
       224    1        9.931788775832       1.303852731864       9.932231485753
       225    1        8.491974722997       2.693277254879      11.355352274254
       226    1        9.929495666106       4.084267476773       1.375752536770
       227    1        8.524511622482       2.692951035555       2.816207060007
       228    1        9.931834938942       4.087124204014       4.232233433434
       229    1        8.506829669721       2.710024975416       5.658227049132
       230    1        9.936617665064       4.092956913204       7.097668719550
       231    1        8.500942106509       2.690597742695       8.513030116232
       232    1        9.942251958079       4.095046819864       9.937894274515
       233    1        8.517192091008       5.509078333218      11.362690954870
       234    1        9.942771264567       6.915607571502       1.393722524538
       235    1        8.520428295967       5.496623269165       2.794492959092
       236    1        9.941031314275       6.895401977422       4.230184247299
       237    1        8.517841110135       5.503960895802       5.673769769198
       238    1        9.932736202418       6.912100200844       7.102986253846
       239    1        8.513204282236       5.510284985671       8.520931986785
       240    1        9.926826070574       6.933629137466       9.947314398451
       241    1        8.509828106170       8.332894610092      11.351531792506
       242    1        9.936818959018       9.781809022494       1.393604210198
       243    1        8.513472598186       8.333746319507       2.818652792953
       244    1        9.936793768778       9.790385872224       4.195037935299
       245    1        8.521579524132       8.341156781276       5.645601609627
       246    1        9.897766905996       9.782307840565       7.105189544978
       247    1        8.503116104015       8.335506416379       8.512466926295
       248    1        9.938470572496       9.775558280681       9.962702899536
       249    1        8.519355602079      11.216826030058       0.003560828505
       250    1        9.933282522873      12.690694169062       1.374017031814
       251    1        8.501318364348      11.253479797372       2.798532972073
       252    1        9.967542731134      12.753939427602       4.110787410680
       253    1        8.507115311086      11.196627616906       5.580803079569
       254    1        9.986129480844      12.762155179213       7.157067533579
       255    1        8.506273888678      11.186377610831       8.601831069646
       256    1        9.942935172102      12.591719431293       9.947393844592
       257    1        8.504727253532      17.093529404324      11.391705324134
       258    1        9.895471972542      18.571118546609       1.397542778320
       259    1        8.514140310522      17.095624696681       2.785569459029
       260    1       10.012796028548      18.570434819629       4.163629353399
       261    1        8.484539270825      17.110472805163       5.679719453138
       262    1        9.930412545251      18.590060553731       7.105985146226
       263    1        8.522669771400      17.133280972908       8.511543208170
       264    1        9.926533704214      18.689492049847       9.918132702162
       265    1        8.495115410212      20.050074117006      11.366687540333
       266    1        9.926898107822      21.455187942987       1.384255325628
       267    1        8.505222965541      20.013509341914       2.793553625299
       268    1        9.933789063266      21.451955242845       4.232649015403
       269    1        8.509272895041      20.060077150432       5.681090668468
       270    1        9.929620135527      21.460792657695       7.082487553517
       271    1        8.504663195093      20.048264010096       8.507248101266
       272    1        9.921094550071      21.471361702166       9.926072984981
       273    1        8.495676890405      22.871976163506      11.367030173191
       274    1        9.927909022931      24.270088584182       1.378122926961
       275    1        8.504792793749      22.859254635713       2.795024347776
       276    1        9.937689219122      24.273658275041       4.219590554532
       277    1        8.504867566588      22.852261437183       5.648718132450
       278    1        9.934837250812      24.262601183893       7.080956875989
       279    1        8.506798666349      22.874912393885       8.514457297208
       280    1        9.934692150470      24.268940917928       9.945157384410
       281    1        8.506589165619      25.679435823986      11.359228037751
       282    1        9.918588178177      27.067512127672       1.399238161264
       283    1        8.498018100952      25.666758407610       2.817637090559
       284    1        9.937729341133      27.051732550176       4.233370299743
       285    1        8.501580411235      25.662326492406       5.646999382993
       286    1        9.943689967440      27.051313748167       7.071562398225
       287    1        8.517357708288      25.670226026700       8.508513312418
       288    1        9.932664963051      27.061866635548       9.940078986421
       289    2        2.886340563758       9.869481491699       6.253998681216
       290    2        8.548415336572      11.878236735562       7.116208280303
       291    2        4.274459228738      11.998331097027       5.636214084826
       292    2        5.641022799068      17.804857565038       7.111513435064
       293    2        8.511709395365      18.574949571973       4.874441734299
       294    2       11.354716819103       9.814334012372       6.241484831055
       295    2        0.667011112754      17.126441394956       7.110773799463
       296    2        3.666687125865      11.272133797969       1.372094480777
       297    2        2.859227088763      16.380966123905       7.047324941950
       298    2        9.925442659065      17.105443590583      10.353794712488
       299    2        9.326217342484      12.745464393180       5.585632880665
       300    2        5.183858696182       9.793094364585       5.664134445384
       301    2        7.558017849034      17.103300339882       9.976771591619
       302    2        0.022391957737      18.556147080033       0.482438804340
       303    2        6.531421416613      11.260157547970       1.391128841675
       304    2        4.229148027967      17.082794685574      10.441198120502
