LAMMPS data file via write_data, version 29 Aug 2024, timestep = 43, units = metal

256 atoms
2 atom types

0 14.06520962 xlo xhi
0 27.16401269 ylo yhi
0 8.12055266 zlo zhi

Masses

1 55.8
2 1

Atoms # atomic

14 1 1.057837382915 0.882609793183 6.031986631378 0 0 0
20 1 2.25573232562 1.447644730203 4.014404140079 0 0 0
119 1 2.244360603642 3.952166145731 8.064109215832 0 0 0
162 1 4.60370373332 3.201606388904 8.068442342731 0 0 0
164 1 3.418738515862 2.324412972245 1.977215467643 0 0 0
165 1 1.074861068727 3.19086264902 1.957023713454 0 0 0
171 1 4.591949718945 0.910111628979 4.018430797321 0 0 0
207 1 4.594340382624 3.209464162834 4.011853880516 0 0 0
209 1 3.426008119455 2.326209894442 6.036804230449 0 0 0
210 1 1.081883405934 3.179405063333 6.024229960683 0 0 0
211 1 2.253355164542 3.953160954879 4.005300432108 0 0 0
227 1 4.593113052432 0.910667836943 8.072870642508 0 0 0
230 1 1.069909552332 0.885056909312 1.980914216969 0 0 0
231 1 2.245764874171 1.436182171713 8.062433620996 0 0 0
16 1 8.109115727815 3.202888874678 6.027256896687 0 0 0
21 1 9.274888966746 3.965174251251 4.007438898446 0 0 0
25 1 6.930309524998 2.323694650918 4.010853915662 0 0 0
124 1 8.122515793672 3.208139656878 1.966794037592 0 0 0
125 1 9.297242101135 3.958866499871 8.056910427104 0 0 0
159 1 8.11083379317 0.898923817829 6.045176357831 0 0 0
160 1 9.274785306151 1.454175263136 4.000623562215 0 0 0
163 1 5.759295448311 3.956795327614 1.977751830146 0 0 0
168 1 8.0965370702 0.910650183494 1.979660403638 0 0 0
169 1 9.278640861412 1.456335448559 8.081283859885 0 0 0
172 1 5.742404960035 1.435417106043 6.045955118831 0 0 0
206 1 6.93382892175 2.31972088441 8.074350450819 0 0 0
208 1 5.771856665066 3.95392726375 6.049292584768 0 0 0
228 1 5.752460178392 1.422503732412 1.988217192387 0 0 0
1 1 11.630877262625 3.217544718318 3.977814716315 0 0 0
7 1 12.794040842563 3.956175965058 6.021759444947 0 0 0
11 1 10.452361787691 2.343884726503 6.028276756895 0 0 0
33 1 11.607959972679 0.912363562609 4.014394639032 0 0 0
36 1 12.802098379198 1.473576403598 6.01991250645 0 0 0
120 1 13.966959911241 2.329760724094 8.068561877266 0 0 0
121 1 11.629189718775 3.20945521179 8.058433193139 0 0 0
122 1 12.801934519506 3.956410929978 1.96886697107 0 0 0
123 1 10.462057921247 2.332371196787 1.958851649858 0 0 0
166 1 12.796014894733 1.441792984817 1.969021342776 0 0 0
213 1 13.964454616104 2.329442216092 3.985067750334 0 0 0
233 1 11.607715519335 0.915017298683 8.049571315227 0 0 0
12 1 3.4175017768889178 4.913994053536926 1.9722659032199943 0 0 0
19 1 1.0762234793751995 5.762072582080075 1.9690509686080833 0 0 0
28 1 2.249171200895507 6.610094475579179 8.062301991916799 0 0 0
31 1 4.590397742007396 5.762139641447291 8.065676884645143 0 0 0
72 1 4.59027339579558 5.763818960479422 4.002140344802075 0 0 0
74 1 3.4222809205188196 4.9157871597796055 6.036644626177331 0 0 0
75 1 1.0797101798745876 5.758597546556919 6.029834335670222 0 0 0
76 1 2.2461735787632993 6.606744810611316 4.000203868142817 0 0 0
106 1 4.578904194326763 8.371151688231393 3.998491683590837 0 0 0
108 1 3.4219352466448973 7.497338103288905 6.035489547866256 0 0 0
109 1 1.089143180217409 8.374446481442865 6.032119435794207 0 0 0
110 1 2.2468798888276016 9.260951649887312 3.9913328435119637 0 0 0
201 1 4.56862109657027 8.402056770946382 8.071300348435184 0 0 0
203 1 3.4110877775615602 7.498348001311623 1.9685123086760161 0 0 0
204 1 1.0785970476101332 8.389268181569255 1.9718154041804048 0 0 0
205 1 2.2409274310273264 9.286423598528254 8.067615166423948 0 0 0
5 1 5.75740180094177 6.615562044733769 1.97084673274602 0 0 0
69 1 8.104164830519709 5.769232726037844 1.9711008799479144 0 0 0
70 1 9.270558150739618 6.621220922211806 8.057403324504387 0 0 0
71 1 6.940294935998468 4.917046311093701 8.067549743534629 0 0 0
73 1 5.7594405586896045 6.607783068518888 6.034975894178034 0 0 0
81 1 8.105683826326684 5.7628205079820525 6.030741494184491 0 0 0
107 1 5.707511055938227 9.254490650379857 6.030273473556182 0 0 0
130 1 8.089271540811797 8.394177555047653 1.9771429843914534 0 0 0
131 1 9.20788787186046 9.318854816100146 8.050526345999925 0 0 0
132 1 6.9215575660296995 7.505041169793472 8.069732895881769 0 0 0
188 1 8.131241080912895 8.351530697964149 6.012005309668792 0 0 0
189 1 9.290008552608644 9.300271681526748 3.998275769918668 0 0 0
190 1 6.929860331539138 7.498195317568029 3.99530566753007 0 0 0
199 1 9.27536175836541 6.616069237087839 3.9985282130313764 0 0 0
200 1 6.932731604720937 4.917318156042845 4.001271322428283 0 0 0
202 1 5.736056409683784 9.292201905894927 1.971256416009482 0 0 0
32 1 13.97073054272784 4.916638644695207 8.056875996361459 0 0 0
35 1 11.623476961507437 5.763816320624244 8.058605875934589 0 0 0
38 1 12.798871818441373 6.617241960962522 1.9687968331025538 0 0 0
68 1 10.451772681117664 4.922024135213156 1.96966863697516 0 0 0
77 1 13.973238734702127 4.920087127954234 3.997528030809016 0 0 0
78 1 11.6259648339283 5.7649873184406335 3.9956573346619684 0 0 0
79 1 12.800897179635655 6.607427183073688 6.027935195927321 0 0 0
80 1 10.454049276240285 4.919933025756236 6.025787239295894 0 0 0
111 1 13.976321925798942 7.505379783514758 3.9980491150674244 0 0 0
112 1 11.626115770652506 8.37813921651007 3.988097168653401 0 0 0
126 1 13.976042881974685 7.503587583825319 8.05772858492869 0 0 0
127 1 11.632426484651148 8.338141147081425 8.057390840674083 0 0 0
128 1 12.82119671661336 9.257922307570222 2.009979930064009 0 0 0
129 1 10.4416401059644 7.494514636600671 1.9762530306314723 0 0 0
186 1 12.828844442747382 9.220294475480584 6.00179106491588 0 0 0
187 1 10.453004547446284 7.495498738440646 6.019019366026098 0 0 0
51 1 4.531771737735258 10.946635996752685 3.97092105613627 0 0 0
53 1 3.409150508716061 10.18967176156087 6.0581066880058465 0 0 0
54 1 1.0868758547855168 10.976974761079921 6.032330018452013 0 0 0
64 1 3.293796409460818 13.524253229292214 6.085065523785279 0 0 0
152 1 3.3918655025964837 10.204269032757965 1.9538935414741123 0 0 0
153 1 1.1120386136605902 11.105048854108809 2.0127057282353618 0 0 0
154 1 2.1404819615721187 11.949785780214157 8.05358268806877 0 0 0
177 1 2.2328177238840516 11.984315763604778 4.0444294819275495 0 0 0
191 1 4.552943466732609 11.166518783696938 8.105769605345952 0 0 0
195 1 3.1005459209846498 13.307459920707656 1.9941129350774647 0 0 0
243 2 3.1694078518306017 13.33665828056085 7.904710700132576 0 0 0
251 2 0.3762415931024907 11.979478500738342 4.742016199989552 0 0 0
252 2 3.7360692201337096 11.935558189523203 5.2462384004410785 0 0 0
3 1 6.9287426621242885 10.192866857964203 4.018844074051905 0 0 0
40 1 6.9463448213441685 13.296457196139766 7.8354419645013085 0 0 0
48 1 8.08110462988276 10.988732925027264 1.9806745288806742 0 0 0
49 1 9.204767509894403 12.038509804041356 0.028546814149317094 0 0 1
50 1 6.869780606296846 10.26692785864634 8.101010442564641 0 0 0
52 1 5.6688146819467375 11.977992659390981 5.953647265939025 0 0 0
98 1 7.046284658042053 13.544643296529488 4.23690064190803 0 0 0
184 1 8.143132267643386 11.231823583200612 6.026509406911177 0 0 0
185 1 9.327027112477541 12.017015600079663 3.8994324939469562 0 0 0
192 1 5.782109533662847 11.979858654770252 2.0579922035690403 0 0 0
242 2 8.888589581433934 13.409282477577854 4.899023857803671 0 0 0
247 2 7.300709801981999 9.799160818966334 6.484980782029778 0 0 0
254 2 5.79671897583802 12.200380292806758 4.034985270481381 0 0 0
256 2 7.758874377617051 12.372595352775708 3.033655481105713 0 0 0
34 1 10.628810707650095 13.498711060009509 1.7779623004415435 0 0 0
66 1 0.05183100936995446 13.499003122700566 3.8091503888027636 1 0 0
96 1 10.39188155737284 13.36124126272218 6.074537828581961 0 0 0
155 1 14.009241138024734 10.237614598487417 8.05691754211888 0 0 0
156 1 11.585577286214654 11.313486961018501 8.034502102509716 0 0 0
157 1 12.846114077842874 12.100941075277396 2.0374210947209592 0 0 0
158 1 10.460056451517204 10.25155071062944 2.0231790444730464 0 0 0
179 1 13.987728516060143 10.199621407824887 3.9896819450786465 0 0 0
181 1 11.627724147888346 11.096878313506526 4.013434911178482 0 0 0
182 1 12.907124750277092 12.158973402565834 5.94721548246959 0 0 0
183 1 10.428368311811068 10.243105227548856 5.994404378190137 0 0 0
197 1 13.954152334390276 13.609697368703754 0.03632476205864068 0 0 1
244 2 12.464707135334615 13.484556012864246 3.0228269261059806 0 0 0
245 2 0.3401908339884254 12.003650056475225 7.308556298655037 1 0 0
246 2 10.326637789425517 13.388411490241834 7.980155037076694 0 0 -1
248 2 10.78751635531449 9.82714906748998 0.35957831966782405 0 0 0
253 2 12.07019208064232 10.733407501865326 6.461363876992878 0 0 0
255 2 12.752148435712071 10.699087599026216 1.049615444197558 0 0 0
63 1 2.2533436123041106 14.813436069281881 4.010346580484931 0 0 0
65 1 4.584934593290844 15.660719000023969 4.031393913284732 0 0 0
67 1 1.0663422981270392 15.626984413581342 6.039497780918145 0 0 0
89 1 2.2273794249894516 17.457876900901386 8.060217845022837 0 0 0
90 1 3.3982734371836876 16.55066237460111 1.9999353082339695 0 0 0
174 1 2.2401674307221233 17.457530084154357 3.998496181604238 0 0 0
175 1 3.391670573553003 16.563738346554636 6.017181349972655 0 0 0
194 1 2.2455274333043294 14.838045352890878 8.09485764820073 0 0 0
196 1 4.5470561715119215 15.809774351185329 8.054254512703253 0 0 0
198 1 1.064286089724234 15.664264079086758 1.990408569689778 0 0 0
250 2 3.892472927362182 14.8821553147066 1.341187629887335 0 0 0
24 1 9.24152411944283 14.78829089159192 8.081684533457276 0 0 0
41 1 8.099403340127122 15.656933837332206 1.983644522122338 0 0 0
43 1 9.265372625011327 17.42801457670828 3.9880345881996675 0 0 0
46 1 6.917906581737771 16.501894753574422 3.9955806424210074 0 0 0
62 1 5.704648404108389 14.84928363145598 6.070445845823221 0 0 0
88 1 5.7633412964176145 17.47232014221983 1.978258710202187 0 0 0
95 1 9.34880980731971 14.825957600907097 3.9700045753862128 0 0 0
99 1 8.088528661111473 15.627035189234604 6.003618159029887 0 0 0
101 1 9.25684436860434 17.41576537646212 8.06569901692909 0 0 0
104 1 6.9406010490700885 16.520279205369242 8.055869967140165 0 0 0
173 1 5.7539983568066555 17.460269488939034 6.022220013579084 0 0 0
193 1 5.717764739594939 14.834929935845738 1.9554717559592463 0 0 0
249 2 6.00691998699756 14.831803189774991 7.985284771672294 0 0 -1
9 1 12.837153753187614 14.826451041209603 1.9940490624271743 0 0 0
39 1 11.638718334724024 15.565725782450468 0.010195748265327273 0 0 1
42 1 12.833380422862744 17.45153158886776 5.995592558039853 0 0 0
44 1 10.404976880163778 16.488894309710954 5.978871594856325 0 0 0
92 1 13.979190585814687 16.508245289942167 8.074627092568582 0 0 0
94 1 12.767939638318234 14.804769009679692 5.996340219129101 0 0 0
97 1 11.643751247888126 15.690323105209332 3.975068083207721 0 0 0
100 1 12.796160987402644 17.437047859726206 1.9739100987327427 0 0 0
102 1 10.444386412400199 16.518720124662256 1.9751904153048343 0 0 0
178 1 13.981998399891927 16.5346274628537 4.005041579208724 0 0 0
241 2 11.619419081811369 16.938374362539097 7.117079775529354 0 0 0
91 1 4.577085789952672 18.353367744822812 8.055631118807106 0 0 0
93 1 1.0693913509966608 18.323352990570445 1.9716157742767295 0 0 0
114 1 2.238363386980298 20.091517061244776 8.05612648394985 0 0 0
115 1 3.408780513429328 19.224966237589317 1.9683949887693872 0 0 0
116 1 4.585753765389946 20.971376110638914 8.056937447357264 0 0 0
118 1 1.0636024758304226 20.962839689287176 1.9645397476831303 0 0 0
134 1 2.238031269788897 20.09187815948051 3.995005428873357 0 0 0
135 1 3.4092555831303897 19.230496208490766 6.023005079497379 0 0 0
136 1 4.584536856334379 20.97309642906245 3.9966016829397413 0 0 0
138 1 1.0673825549539167 20.969036735676116 6.0246871175453744 0 0 0
176 1 4.580730703324387 18.331596535501728 3.9981648092493063 0 0 0
180 1 1.0714633536790263 18.325873219309717 6.024073519608928 0 0 0
222 1 3.4110153164421604 21.819515151433844 1.9655679511121362 0 0 0
224 1 3.4126082366223205 21.820682697399885 6.02590274152946 0 0 0
23 1 6.926692659186735 21.8230798726088 3.998607359307985 0 0 0
47 1 8.099713342274898 18.30397407421691 6.028272659394017 0 0 0
83 1 9.266417375001074 20.086571331645843 3.997643255871241 0 0 0
86 1 6.929306104022902 19.21094977531422 3.99739965665602 0 0 0
87 1 8.097768332242497 20.966731394758067 6.028113195865204 0 0 0
105 1 8.101712765084606 18.319807022105568 1.9626298818113719 0 0 0
113 1 5.758732910226405 20.09613484155514 1.9674662331815898 0 0 0
133 1 5.757872854985709 20.091099775242448 6.025615831957217 0 0 0
147 1 9.270696735406409 20.083474831913048 8.05853631531543 0 0 0
150 1 6.929766695752446 19.214901217932507 8.05452991607568 0 0 0
151 1 8.099449431119695 20.96979327457144 1.9675185432002567 0 0 0
217 1 6.928711109116828 21.822924511247855 8.059018555720721 0 0 0
15 1 10.439522686614007 21.824688900702316 6.0277593208937645 0 0 0
45 1 11.618071787461227 18.327046878086485 3.9869598310822503 0 0 0
56 1 13.958760792122218 21.81901540907401 8.05439321621227 0 0 0
60 1 10.438711618089394 21.821874570331858 1.967756532272033 0 0 0
82 1 12.790395710421624 20.089901525167917 6.025103173977524 0 0 0
84 1 10.435656405755374 19.227940970671956 6.019230705997271 0 0 0
85 1 11.61221494354859 20.964581378455602 3.9957323909213174 0 0 0
103 1 11.610414090760523 18.363968451132784 8.09355319407344 0 0 0
117 1 13.96693412546597 19.215451396368742 8.061743723496493 0 0 0
137 1 13.959313726947093 19.21884941015125 3.997008015864651 0 0 0
146 1 12.785791670615763 20.080317721170488 1.9662801790029707 0 0 0
148 1 10.437589843823947 19.219390843411357 1.9722335615528686 0 0 0
149 1 11.613832548736818 20.968248629373303 8.057375255577819 0 0 0
226 1 13.956298084933835 21.813835241641044 3.9938994459050177 0 0 0
2 1 1.076727381391 23.586469888427 6.014516399208 0 0 0
4 1 3.40994705659 26.968465186677 6.018819642473 0 0 0
13 1 2.231707400416 25.319436872092 8.061255166394 0 0 0
17 1 3.400807342726 24.460067222931 1.978711111032 0 0 0
22 1 4.573483505235 25.917418863688 8.061385988497 0 0 0
30 1 1.048241393652 25.892818409533 1.955998087653 0 0 0
55 1 4.583388647805 23.608692099769 8.068630089909 0 0 0
57 1 1.05661244381 23.586834146213 1.962799781355 0 0 0
139 1 2.215835795925 25.336208145932 4.004391742266 0 0 0
140 1 3.405626364846 24.456368701043 6.018140358243 0 0 0
141 1 4.577589421227 25.901967620282 3.996477126821 0 0 0
143 1 1.058017558251 25.887563649091 6.048239430294 0 0 0
220 1 2.2392969508088343 22.678761588568 8.055809853182112 0 0 0
223 1 2.2369611120382213 22.675590895081378 3.990697477409307 0 0 0
225 1 4.575138277146 23.608764702686 3.997607182929 0 0 0
229 1 3.394482639917 26.967230937087 1.985170036207 0 0 0
8 1 5.764516735426 25.355935750881 1.957580620955 0 0 0
10 1 9.267398811696745 22.688198896887666 3.997318777330192 0 0 0
27 1 8.098971336029 23.603884394275 6.036138669953 0 0 0
59 1 9.269901081603003 22.691948982225558 8.058959922735848 0 0 0
145 1 9.278891784752 25.340725439758 4.00373706331 0 0 0
161 1 6.939146555551 26.977497536567 4.006002941119 0 0 0
170 1 6.937718936774 26.980692313558 8.054253869507 0 0 0
215 1 6.92729760101 24.469423550906 3.993871809911 0 0 0
216 1 8.100270680094 25.900166222563 6.027167976635 0 0 0
218 1 5.755834225778567 22.688878136683112 1.9705088040568388 0 0 0
219 1 8.100162096675 23.613224312002 1.958446921513 0 0 0
221 1 5.754576709807724 22.69100937289823 6.0298229577944795 0 0 0
235 1 9.283640762128 25.386751710928 8.076086706183 0 0 0
238 1 6.935354434385 24.472930868536 8.07316631183 0 0 0
239 1 8.098209564276 25.914094047911 1.995625734989 0 0 0
240 1 5.744090534756 25.355448167592 6.033969020693 0 0 0
6 1 12.787044053735794 22.684582829675882 6.026102366712774 0 0 0
18 1 11.617012904198 23.589855621035 3.995117746306 0 0 0
26 1 13.958898717652 24.469825850631 8.04507131097 0 0 0
29 1 13.950212044191 26.979561746901 3.992627010394 0 0 0
37 1 10.444634783482 26.996639096737 6.03736714716 0 0 0
58 1 12.782670732418046 22.67419207755562 1.9625833558486296 0 0 0
61 1 11.60650605196 23.60103274066 8.055540246254 0 0 0
142 1 13.957838200847 24.459328015833 3.993168326434 0 0 0
144 1 12.776089696829 25.34713687407 6.016990569192 0 0 0
167 1 10.442632460241 27.007563597992 1.981290523379 0 0 0
212 1 10.437962810647 24.48024660699 6.034886237116 0 0 0
214 1 11.622113933771 25.899369330956 3.997829767278 0 0 0
232 1 13.943125850932 26.997755988187 8.066013891458 0 0 0
234 1 12.783040582771 25.317976359987 1.975268646348 0 0 0
236 1 10.450743022716 24.477436476275 1.967506534883 0 0 0
237 1 11.635301333659 25.910247087868 8.073659229376 0 0 0

Velocities

14 0 0 0
20 0 0 0
119 0 0 0
162 0 0 0
164 0 0 0
165 0 0 0
171 0 0 0
207 0 0 0
209 0 0 0
210 0 0 0
211 0 0 0
227 0 0 0
230 0 0 0
231 0 0 0
16 0 0 0
21 0 0 0
25 0 0 0
124 0 0 0
125 0 0 0
159 0 0 0
160 0 0 0
163 0 0 0
168 0 0 0
169 0 0 0
172 0 0 0
206 0 0 0
208 0 0 0
228 0 0 0
1 0 0 0
7 0 0 0
11 0 0 0
33 0 0 0
36 0 0 0
120 0 0 0
121 0 0 0
122 0 0 0
123 0 0 0
166 0 0 0
213 0 0 0
233 0 0 0
12 0 0 0
19 0 0 0
28 0 0 0
31 0 0 0
72 0 0 0
74 0 0 0
75 0 0 0
76 0 0 0
106 0 0 0
108 0 0 0
109 0 0 0
110 0 0 0
201 0 0 0
203 0 0 0
204 0 0 0
205 0 0 0
5 0 0 0
69 0 0 0
70 0 0 0
71 0 0 0
73 0 0 0
81 0 0 0
107 0 0 0
130 0 0 0
131 0 0 0
132 0 0 0
188 0 0 0
189 0 0 0
190 0 0 0
199 0 0 0
200 0 0 0
202 0 0 0
32 0 0 0
35 0 0 0
38 0 0 0
68 0 0 0
77 0 0 0
78 0 0 0
79 0 0 0
80 0 0 0
111 0 0 0
112 0 0 0
126 0 0 0
127 0 0 0
128 0 0 0
129 0 0 0
186 0 0 0
187 0 0 0
51 0 0 0
53 0 0 0
54 0 0 0
64 0 0 0
152 0 0 0
153 0 0 0
154 0 0 0
177 0 0 0
191 0 0 0
195 0 0 0
243 0 0 0
251 0 0 0
252 0 0 0
3 0 0 0
40 0 0 0
48 0 0 0
49 0 0 0
50 0 0 0
52 0 0 0
98 0 0 0
184 0 0 0
185 0 0 0
192 0 0 0
242 0 0 0
247 0 0 0
254 0 0 0
256 0 0 0
34 0 0 0
66 0 0 0
96 0 0 0
155 0 0 0
156 0 0 0
157 0 0 0
158 0 0 0
179 0 0 0
181 0 0 0
182 0 0 0
183 0 0 0
197 0 0 0
244 0 0 0
245 0 0 0
246 0 0 0
248 0 0 0
253 0 0 0
255 0 0 0
63 0 0 0
65 0 0 0
67 0 0 0
89 0 0 0
90 0 0 0
174 0 0 0
175 0 0 0
194 0 0 0
196 0 0 0
198 0 0 0
250 0 0 0
24 0 0 0
41 0 0 0
43 0 0 0
46 0 0 0
62 0 0 0
88 0 0 0
95 0 0 0
99 0 0 0
101 0 0 0
104 0 0 0
173 0 0 0
193 0 0 0
249 0 0 0
9 0 0 0
39 0 0 0
42 0 0 0
44 0 0 0
92 0 0 0
94 0 0 0
97 0 0 0
100 0 0 0
102 0 0 0
178 0 0 0
241 0 0 0
91 0 0 0
93 0 0 0
114 0 0 0
115 0 0 0
116 0 0 0
118 0 0 0
134 0 0 0
135 0 0 0
136 0 0 0
138 0 0 0
176 0 0 0
180 0 0 0
222 0 0 0
224 0 0 0
23 0 0 0
47 0 0 0
83 0 0 0
86 0 0 0
87 0 0 0
105 0 0 0
113 0 0 0
133 0 0 0
147 0 0 0
150 0 0 0
151 0 0 0
217 0 0 0
15 0 0 0
45 0 0 0
56 0 0 0
60 0 0 0
82 0 0 0
84 0 0 0
85 0 0 0
103 0 0 0
117 0 0 0
137 0 0 0
146 0 0 0
148 0 0 0
149 0 0 0
226 0 0 0
2 0 0 0
4 0 0 0
13 0 0 0
17 0 0 0
22 0 0 0
30 0 0 0
55 0 0 0
57 0 0 0
139 0 0 0
140 0 0 0
141 0 0 0
143 0 0 0
220 0 0 0
223 0 0 0
225 0 0 0
229 0 0 0
8 0 0 0
10 0 0 0
27 0 0 0
59 0 0 0
145 0 0 0
161 0 0 0
170 0 0 0
215 0 0 0
216 0 0 0
218 0 0 0
219 0 0 0
221 0 0 0
235 0 0 0
238 0 0 0
239 0 0 0
240 0 0 0
6 0 0 0
18 0 0 0
26 0 0 0
29 0 0 0
37 0 0 0
58 0 0 0
61 0 0 0
142 0 0 0
144 0 0 0
167 0 0 0
212 0 0 0
214 0 0 0
232 0 0 0
234 0 0 0
236 0 0 0
237 0 0 0
