LAMMPS data file via write_data, version 29 Aug 2024, timestep = 5, units = metal

288 atoms
1 atom types

0 11.317147 xlo xhi
0 29.263582 ylo yhi
0 11.317147 zlo zhi

Masses

1 55.8

Atoms # atomic

1 1 0 0 0 0 0 0
2 1 1.414643375 1.414643557616 1.414643375 0 0 0
3 1 0 0 2.82928675 0 0 0
4 1 1.414643375 1.414643557616 4.243930125 0 0 0
9 1 0 2.82928660596 0 0 0 0
10 1 1.4146433749999971 4.244274200712041 1.414643374999992 0 0 0
11 1 0 2.82928660596 2.82928675 0 0 0
12 1 1.4146433750000016 4.244274200712036 4.243930125000007 0 0 0
73 1 2.82928675 0 0 0 0 0
74 1 4.243930125 1.414643557616 1.414643375 0 0 0
75 1 2.82928675 0 2.82928675 0 0 0
76 1 4.243930125 1.414643557616 4.243930125 0 0 0
81 1 2.82928675 2.82928660596 0 0 0 0
82 1 4.243930124999999 4.244274200712041 1.4146433749999971 0 0 0
83 1 2.82928675 2.82928660596 2.82928675 0 0 0
84 1 4.243930124999997 4.2442742007120415 4.243930125000005 0 0 0
145 1 5.6585735 0 0 0 0 0
146 1 7.073216875 1.414643557616 1.414643375 0 0 0
147 1 5.6585735 0 2.82928675 0 0 0
148 1 7.073216875 1.414643557616 4.243930125 0 0 0
153 1 5.6585735 2.82928660596 0 0 0 0
154 1 7.073216875000003 4.244274200712036 1.4146433749999958 0 0 0
155 1 5.6585735 2.82928660596 2.82928675 0 0 0
156 1 7.073216875000003 4.244274200712038 4.243930125000005 0 0 0
217 1 8.48786025 0 0 0 0 0
218 1 9.902503625 1.414643557616 1.414643375 0 0 0
219 1 8.48786025 0 2.82928675 0 0 0
220 1 9.902503625 1.414643557616 4.243930125 0 0 0
225 1 8.48786025 2.82928660596 0 0 0 0
226 1 9.902503625000003 4.244274200712042 1.414643374999995 0 0 0
227 1 8.48786025 2.82928660596 2.82928675 0 0 0
228 1 9.902503625 4.244274200712037 4.243930125000009 0 0 0
17 1 9.193976572776623e-16 5.662597373104011 1.3766051972452155e-14 0 0 0
18 1 1.4146433749999974 7.083515918666311 1.4146433750000011 0 0 0
19 1 11.317146999999997 5.662597373104018 2.8292867499999965 -1 0 0
20 1 1.4146433750000034 7.0835159186663175 4.243930124999998 0 0 0
25 1 11.317146999999999 8.503796715487752 11.317146999999999 -1 0 -1
27 1 2.3290109027952176e-15 8.503796715487757 2.8292867500000036 0 0 0
89 1 2.829286750000003 5.662597373104011 0 0 0 0
90 1 4.243930125000006 7.083515918666309 1.4146433750000074 0 0 0
91 1 2.8292867500000067 5.662597373104014 2.8292867500000027 0 0 0
92 1 4.243930124999994 7.083515918666316 4.2439301249999986 0 0 0
97 1 2.829286749999999 8.503796715487757 11.317146999999997 0 0 -1
99 1 2.8292867500000023 8.503796715487756 2.8292867500000063 0 0 0
161 1 5.658573499999999 5.662597373104014 4.903581940586187e-15 0 0 0
162 1 7.073216874999998 7.083515918666312 1.4146433750000034 0 0 0
163 1 5.658573499999999 5.6625973731040204 2.8292867499999947 0 0 0
164 1 7.073216874999998 7.083515918666324 4.243930124999994 0 0 0
169 1 5.658573500000002 8.50379671548776 1.961030027710113e-17 0 0 0
171 1 5.658573500000005 8.503796715487749 2.8292867500000063 0 0 0
233 1 8.487860250000002 5.662597373104015 9.827816991597894e-15 0 0 0
234 1 9.902503625000003 7.08351591866631 1.4146433750000016 0 0 0
235 1 8.48786025 5.662597373104018 2.8292867499999987 0 0 0
236 1 9.902503624999998 7.08351591866632 4.243930124999999 0 0 0
241 1 8.48786025 8.503796715487752 11.317146999999993 0 0 -1
243 1 8.487860249999999 8.50379671548775 2.8292867500000103 0 0 0
26 1 1.4146433750000003 9.917209351656718 1.4146433750000034 0 0 0
28 1 1.4146433750000005 9.917209351656714 4.243930124999995 0 0 0
33 1 11.317146999999997 11.346028102429175 5.786284879180815e-15 -1 0 0
34 1 1.4146433749999952 12.745183242326833 1.4146433750000031 0 0 0
35 1 1.3196007199007466e-16 11.346028102429171 2.82928675 0 0 0
36 1 1.414643375000002 12.745183242326837 4.243930124999992 0 0 0
98 1 4.2439301249999986 9.917209351656718 1.414643374999996 0 0 0
100 1 4.243930124999997 9.917209351656714 4.2439301250000065 0 0 0
105 1 2.8292867499999987 11.346028102429178 0 0 0 0
106 1 4.243930124999994 12.745183242326833 1.4146433750000016 0 0 0
107 1 2.8292867499999987 11.346028102429177 2.8292867499999956 0 0 0
108 1 4.243930124999994 12.745183242326835 4.243930124999999 0 0 0
170 1 7.073216874999996 9.91720935165672 1.4146433750000007 0 0 0
172 1 7.0732168749999955 9.917209351656707 4.243930125000005 0 0 0
177 1 5.658573499999998 11.346028102429177 4.810119347949137e-15 0 0 0
178 1 7.073216875000003 12.745183242326837 1.414643375000003 0 0 0
179 1 5.658573500000003 11.346028102429184 2.829286749999996 0 0 0
180 1 7.073216875000007 12.745183242326833 4.243930125000004 0 0 0
242 1 9.902503625000005 9.917209351656718 1.414643375000002 0 0 0
244 1 9.902503625000007 9.91720935165671 4.243930125000003 0 0 0
249 1 8.487860249999999 11.346028102429175 1.819930312609829e-15 0 0 0
250 1 9.902503625000001 12.745183242326831 1.414643374999997 0 0 0
251 1 8.487860250000004 11.34602810242918 2.8292867499999925 0 0 0
252 1 9.902503625 12.745183242326833 4.243930125000002 0 0 0
41 1 9.071454250909077e-16 17.935473963328505 11.317146999999997 0 0 -1
42 1 1.4146433749999976 19.33288197168593 1.4146433749999912 0 0 0
43 1 0 17.93547396332851 2.8292867499999987 0 0 0
44 1 1.4146433749999932 19.332881971685932 4.243930125000001 0 0 0
113 1 2.8292867499999956 17.935473963328505 11.317146999999999 0 0 -1
114 1 4.243930124999998 19.33288197168593 1.4146433749999983 0 0 0
115 1 2.829286749999997 17.935473963328505 2.829286750000002 0 0 0
116 1 4.243930124999997 19.332881971685932 4.243930125000003 0 0 0
185 1 5.658573500000005 17.935473963328505 1.1881861806491152e-15 0 0 0
186 1 7.073216875 19.332881971685932 1.4146433749999996 0 0 0
187 1 5.658573500000004 17.9354739633285 2.8292867499999996 0 0 0
188 1 7.073216875000003 19.332881971685936 4.243930125000002 0 0 0
257 1 8.487860249999999 17.93547396332851 3.345235440763258e-15 0 0 0
258 1 9.902503625000001 19.33288197168593 1.414643374999997 0 0 0
259 1 8.487860249999997 17.935473963328505 2.8292867499999983 0 0 0
260 1 9.902503625000001 19.332881971685936 4.243930125 0 0 0
49 1 1.5505634778974773e-15 20.760367888623136 4.97332685916404e-16 0 0 0
50 1 1.4146433749999971 22.172645449104692 1.414643375 0 0 0
51 1 0 20.760367888623147 2.8292867500000005 0 0 0
52 1 1.4146433749999943 22.1726454491047 4.243930124999998 0 0 0
57 1 5.107256705119486e-15 23.59196457790652 6.4788815332628595e-15 0 0 0
59 1 6.27916557769737e-15 23.591964577906516 2.82928675 0 0 0
121 1 2.8292867500000005 20.76036788862314 6.072337551379991e-15 0 0 0
122 1 4.243930125 22.17264544910469 1.4146433749999991 0 0 0
123 1 2.8292867500000045 20.760367888623147 2.8292867499999956 0 0 0
124 1 4.243930124999997 22.17264544910469 4.243930125 0 0 0
129 1 2.8292867500000027 23.59196457790652 2.035424892701956e-15 0 0 0
131 1 2.8292867500000027 23.591964577906513 2.829286749999999 0 0 0
193 1 5.6585734999999975 20.760367888623144 1.159493233290116e-14 0 0 0
194 1 7.073216875000001 22.172645449104685 1.4146433750000014 0 0 0
195 1 5.658573499999997 20.760367888623144 2.8292867499999983 0 0 0
196 1 7.073216875000012 22.17264544910468 4.243930124999999 0 0 0
201 1 5.658573499999999 23.591964577906513 5.33435052722634e-15 0 0 0
203 1 5.658573499999992 23.591964577906513 2.8292867500000036 0 0 0
265 1 8.487860249999999 20.760367888623147 3.167157968585631e-15 0 0 0
266 1 9.902503624999998 22.17264544910469 1.4146433750000034 0 0 0
267 1 8.487860249999995 20.760367888623147 2.8292867500000063 0 0 0
268 1 9.902503624999992 22.172645449104685 4.243930124999999 0 0 0
273 1 8.487860249999999 23.591964577906516 0 0 0 0
275 1 8.48786025 23.591964577906506 2.829286750000004 0 0 0
58 1 1.4146433749999987 25.005279351336213 1.4146433749999974 0 0 0
60 1 1.4146433749999958 25.005279351336206 4.243930125000003 0 0 0
65 1 0 26.43429539404 0 0 0 0
66 1 1.414643375 27.848937423841 1.414643375 0 0 0
67 1 0 26.43429539404 2.82928675 0 0 0
68 1 1.414643375 27.848937423841 4.243930125 0 0 0
130 1 4.243930125 25.00527935133621 1.4146433750000018 0 0 0
132 1 4.243930125000002 25.00527935133621 4.243930124999995 0 0 0
137 1 2.82928675 26.43429539404 0 0 0 0
138 1 4.243930125 27.848937423841 1.414643375 0 0 0
139 1 2.82928675 26.43429539404 2.82928675 0 0 0
140 1 4.243930125 27.848937423841 4.243930125 0 0 0
202 1 7.073216875000003 25.005279351336213 1.4146433749999974 0 0 0
204 1 7.073216875 25.005279351336213 4.243930125000001 0 0 0
209 1 5.6585735 26.43429539404 0 0 0 0
210 1 7.073216875 27.848937423841 1.414643375 0 0 0
211 1 5.6585735 26.43429539404 2.82928675 0 0 0
212 1 7.073216875 27.848937423841 4.243930125 0 0 0
274 1 9.902503625000001 25.005279351336213 1.4146433749999965 0 0 0
276 1 9.902503624999998 25.00527935133621 4.243930125000006 0 0 0
281 1 8.48786025 26.43429539404 0 0 0 0
282 1 9.902503625 27.848937423841 1.414643375 0 0 0
283 1 8.48786025 26.43429539404 2.82928675 0 0 0
284 1 9.902503625 27.848937423841 4.243930125 0 0 0
5 1 0 0 5.6585735 0 0 0
6 1 1.414643375 1.414643557616 7.073216875 0 0 0
7 1 0 0 8.48786025 0 0 0
8 1 1.414643375 1.414643557616 9.902503625 0 0 0
13 1 0 2.82928660596 5.6585735 0 0 0
14 1 1.4146433749999943 4.244274200712036 7.073216874999998 0 0 0
15 1 0 2.82928660596 8.48786025 0 0 0
16 1 1.4146433750000003 4.244274200712037 9.902503625000003 0 0 0
77 1 2.82928675 0 5.6585735 0 0 0
78 1 4.243930125 1.414643557616 7.073216875 0 0 0
79 1 2.82928675 0 8.48786025 0 0 0
80 1 4.243930125 1.414643557616 9.902503625 0 0 0
85 1 2.82928675 2.82928660596 5.6585735 0 0 0
86 1 4.243930125000001 4.244274200712041 7.073216874999997 0 0 0
87 1 2.82928675 2.82928660596 8.48786025 0 0 0
88 1 4.243930125000002 4.24427420071204 9.902503625 0 0 0
149 1 5.6585735 0 5.6585735 0 0 0
150 1 7.073216875 1.414643557616 7.073216875 0 0 0
151 1 5.6585735 0 8.48786025 0 0 0
152 1 7.073216875 1.414643557616 9.902503625 0 0 0
157 1 5.6585735 2.82928660596 5.6585735 0 0 0
158 1 7.073216874999996 4.244274200712041 7.073216874999997 0 0 0
159 1 5.6585735 2.82928660596 8.48786025 0 0 0
160 1 7.0732168749999955 4.244274200712041 9.902503624999998 0 0 0
221 1 8.48786025 0 5.6585735 0 0 0
222 1 9.902503625 1.414643557616 7.073216875 0 0 0
223 1 8.48786025 0 8.48786025 0 0 0
224 1 9.902503625 1.414643557616 9.902503625 0 0 0
229 1 8.48786025 2.82928660596 5.6585735 0 0 0
230 1 9.902503625000003 4.244274200712042 7.073216874999993 0 0 0
231 1 8.48786025 2.82928660596 8.48786025 0 0 0
232 1 9.902503625000003 4.244274200712036 9.902503625000003 0 0 0
21 1 11.317146999999997 5.6625973731040125 5.658573500000003 -1 0 0
22 1 1.4146433749999952 7.0835159186663095 7.073216875000007 0 0 0
23 1 1.5083597997402825e-15 5.662597373104024 8.487860249999992 0 0 0
24 1 1.4146433750000047 7.083515918666321 9.90250362499999 0 0 0
29 1 11.317146999999995 8.503796715487757 5.658573499999997 -1 0 0
31 1 3.3320006923468028e-15 8.503796715487749 8.487860250000002 0 0 0
93 1 2.8292867500000045 5.662597373104012 5.658573499999996 0 0 0
94 1 4.243930124999997 7.083515918666309 7.073216875000002 0 0 0
95 1 2.82928675 5.662597373104023 8.487860250000002 0 0 0
96 1 4.243930124999999 7.083515918666317 9.902503624999992 0 0 0
101 1 2.8292867500000045 8.503796715487757 5.658573499999992 0 0 0
103 1 2.8292867499999983 8.503796715487749 8.487860250000006 0 0 0
165 1 5.658573499999998 5.662597373104006 5.658573500000002 0 0 0
166 1 7.073216874999996 7.083515918666313 7.0732168750000035 0 0 0
167 1 5.658573499999998 5.662597373104019 8.487860250000004 0 0 0
168 1 7.073216875 7.083515918666321 9.902503624999998 0 0 0
173 1 5.6585735 8.50379671548776 5.65857349999999 0 0 0
175 1 5.658573499999996 8.503796715487745 8.48786025000001 0 0 0
237 1 8.487860250000004 5.662597373104004 5.658573499999998 0 0 0
238 1 9.902503625000012 7.0835159186663095 7.073216874999998 0 0 0
239 1 8.487860249999997 5.662597373104018 8.487860250000004 0 0 0
240 1 9.902503625 7.083515918666322 9.902503624999996 0 0 0
245 1 8.487860250000004 8.503796715487757 5.65857349999999 0 0 0
247 1 8.487860250000002 8.503796715487752 8.48786025000001 0 0 0
30 1 1.4146433750000003 9.91720935165672 7.073216875000003 0 0 0
32 1 1.4146433750000036 9.917209351656716 9.902503625 0 0 0
37 1 2.480744107856538e-15 11.346028102429177 5.658573500000002 0 0 0
38 1 1.4146433750000027 12.74518324232684 7.073216875000004 0 0 0
39 1 11.317146999999999 11.346028102429177 8.487860249999997 -1 0 0
40 1 1.4146433749999963 12.745183242326835 9.902503625000001 0 0 0
102 1 4.2439301249999986 9.917209351656721 7.073216874999994 0 0 0
104 1 4.2439301249999986 9.917209351656716 9.902503625 0 0 0
109 1 2.8292867500000027 11.346028102429173 5.658573500000002 0 0 0
110 1 4.243930125000002 12.745183242326831 7.073216875000001 0 0 0
111 1 2.8292867499999983 11.346028102429178 8.48786025 0 0 0
112 1 4.2439301249999986 12.745183242326835 9.902503624999996 0 0 0
174 1 7.073216874999997 9.917209351656721 7.07321687499999 0 0 0
176 1 7.073216874999997 9.917209351656714 9.902503625000003 0 0 0
181 1 5.658573499999996 11.346028102429173 5.658573500000002 0 0 0
182 1 7.073216875000003 12.745183242326833 7.073216875000002 0 0 0
183 1 5.658573499999997 11.346028102429173 8.48786025 0 0 0
184 1 7.073216874999997 12.745183242326831 9.902503624999996 0 0 0
246 1 9.902503625000005 9.917209351656718 7.073216874999997 0 0 0
248 1 9.902503624999998 9.917209351656712 9.902503625000001 0 0 0
253 1 8.48786025 11.346028102429171 5.658573500000005 0 0 0
254 1 9.902503625000001 12.745183242326839 7.073216874999995 0 0 0
255 1 8.487860250000002 11.346028102429177 8.487860249999997 0 0 0
256 1 9.902503624999996 12.745183242326833 9.902503625000001 0 0 0
45 1 6.546383854384065e-16 17.93547396332851 5.658573500000006 0 0 0
46 1 1.4146433749999998 19.33288197168593 7.073216875000002 0 0 0
47 1 1.4145382668685468e-15 17.935473963328505 8.48786025 0 0 0
48 1 1.4146433749999983 19.332881971685932 9.902503625000001 0 0 0
117 1 2.829286749999988 17.93547396332851 5.658573499999999 0 0 0
118 1 4.2439301249999986 19.332881971685925 7.073216874999994 0 0 0
119 1 2.8292867499999965 17.93547396332851 8.487860250000002 0 0 0
120 1 4.243930124999995 19.33288197168593 9.902503625000007 0 0 0
189 1 5.658573500000006 17.935473963328505 5.658573500000003 0 0 0
190 1 7.0732168749999955 19.33288197168593 7.073216874999997 0 0 0
191 1 5.658573500000003 17.935473963328505 8.487860250000006 0 0 0
192 1 7.073216875000002 19.33288197168593 9.902503625000003 0 0 0
261 1 8.487860250000002 17.935473963328505 5.658573499999998 0 0 0
262 1 9.902503625000005 19.33288197168593 7.073216875 0 0 0
263 1 8.487860250000004 17.9354739633285 8.48786025 0 0 0
264 1 9.902503625000007 19.332881971685932 9.902503624999998 0 0 0
53 1 0 20.760367888623144 5.658573499999993 0 0 0
54 1 1.414643374999999 22.1726454491047 7.073216875 0 0 0
55 1 11.317146999999997 20.760367888623147 8.487860250000004 -1 0 0
56 1 1.4146433749999991 22.172645449104692 9.902503624999992 0 0 0
61 1 4.594464365810896e-15 23.591964577906516 5.6585735 0 0 0
63 1 2.7003774898963945e-15 23.59196457790651 8.487860249999997 0 0 0
125 1 2.8292867500000027 20.760367888623144 5.658573499999992 0 0 0
126 1 4.243930125000001 22.172645449104692 7.073216875000004 0 0 0
127 1 2.829286750000002 20.76036788862315 8.487860250000004 0 0 0
128 1 4.2439301249999986 22.172645449104696 9.902503624999992 0 0 0
133 1 2.8292867500000023 23.591964577906506 5.6585735 0 0 0
135 1 2.829286750000001 23.59196457790651 8.48786025 0 0 0
197 1 5.658573500000001 20.76036788862314 5.6585734999999975 0 0 0
198 1 7.0732168749999955 22.17264544910469 7.073216875000006 0 0 0
199 1 5.658573499999997 20.760367888623147 8.487860249999995 0 0 0
200 1 7.073216875000005 22.172645449104696 9.902503624999992 0 0 0
205 1 5.6585734999999975 23.591964577906513 5.6585735 0 0 0
207 1 5.658573500000001 23.591964577906506 8.48786025 0 0 0
269 1 8.487860250000002 20.760367888623147 5.658573499999988 0 0 0
270 1 9.902503625000003 22.17264544910469 7.073216875000004 0 0 0
271 1 8.487860250000006 20.760367888623154 8.487860250000006 0 0 0
272 1 9.902503624999998 22.17264544910468 9.90250362499999 0 0 0
277 1 8.48786025 23.591964577906516 5.658573499999994 0 0 0
279 1 8.487860249999994 23.591964577906513 8.48786025000001 0 0 0
62 1 1.4146433749999947 25.00527935133621 7.073216874999997 0 0 0
64 1 1.4146433749999985 25.00527935133621 9.902503625000005 0 0 0
69 1 0 26.43429539404 5.6585735 0 0 0
70 1 1.414643375 27.848937423841 7.073216875 0 0 0
71 1 0 26.43429539404 8.48786025 0 0 0
72 1 1.414643375 27.848937423841 9.902503625 0 0 0
134 1 4.243930124999999 25.005279351336213 7.0732168750000035 0 0 0
136 1 4.243930124999994 25.005279351336213 9.902503625000003 0 0 0
141 1 2.82928675 26.43429539404 5.6585735 0 0 0
142 1 4.243930125 27.848937423841 7.073216875 0 0 0
143 1 2.82928675 26.43429539404 8.48786025 0 0 0
144 1 4.243930125 27.848937423841 9.902503625 0 0 0
206 1 7.0732168750000035 25.00527935133621 7.073216875000001 0 0 0
208 1 7.073216875000004 25.005279351336206 9.902503625 0 0 0
213 1 5.6585735 26.43429539404 5.6585735 0 0 0
214 1 7.073216875 27.848937423841 7.073216875 0 0 0
215 1 5.6585735 26.43429539404 8.48786025 0 0 0
216 1 7.073216875 27.848937423841 9.902503625 0 0 0
278 1 9.902503624999998 25.005279351336213 7.073216874999996 0 0 0
280 1 9.902503624999996 25.005279351336213 9.902503625000001 0 0 0
285 1 8.48786025 26.43429539404 5.6585735 0 0 0
286 1 9.902503625 27.848937423841 7.073216875 0 0 0
287 1 8.48786025 26.43429539404 8.48786025 0 0 0
288 1 9.902503625 27.848937423841 9.902503625 0 0 0

Velocities

1 0 0 0
2 0 0 0
3 0 0 0
4 0 0 0
9 0 0 0
10 0 0 0
11 0 0 0
12 0 0 0
73 0 0 0
74 0 0 0
75 0 0 0
76 0 0 0
81 0 0 0
82 0 0 0
83 0 0 0
84 0 0 0
145 0 0 0
146 0 0 0
147 0 0 0
148 0 0 0
153 0 0 0
154 0 0 0
155 0 0 0
156 0 0 0
217 0 0 0
218 0 0 0
219 0 0 0
220 0 0 0
225 0 0 0
226 0 0 0
227 0 0 0
228 0 0 0
17 0 0 0
18 0 0 0
19 0 0 0
20 0 0 0
25 0 0 0
27 0 0 0
89 0 0 0
90 0 0 0
91 0 0 0
92 0 0 0
97 0 0 0
99 0 0 0
161 0 0 0
162 0 0 0
163 0 0 0
164 0 0 0
169 0 0 0
171 0 0 0
233 0 0 0
234 0 0 0
235 0 0 0
236 0 0 0
241 0 0 0
243 0 0 0
26 0 0 0
28 0 0 0
33 0 0 0
34 0 0 0
35 0 0 0
36 0 0 0
98 0 0 0
100 0 0 0
105 0 0 0
106 0 0 0
107 0 0 0
108 0 0 0
170 0 0 0
172 0 0 0
177 0 0 0
178 0 0 0
179 0 0 0
180 0 0 0
242 0 0 0
244 0 0 0
249 0 0 0
250 0 0 0
251 0 0 0
252 0 0 0
41 0 0 0
42 0 0 0
43 0 0 0
44 0 0 0
113 0 0 0
114 0 0 0
115 0 0 0
116 0 0 0
185 0 0 0
186 0 0 0
187 0 0 0
188 0 0 0
257 0 0 0
258 0 0 0
259 0 0 0
260 0 0 0
49 0 0 0
50 0 0 0
51 0 0 0
52 0 0 0
57 0 0 0
59 0 0 0
121 0 0 0
122 0 0 0
123 0 0 0
124 0 0 0
129 0 0 0
131 0 0 0
193 0 0 0
194 0 0 0
195 0 0 0
196 0 0 0
201 0 0 0
203 0 0 0
265 0 0 0
266 0 0 0
267 0 0 0
268 0 0 0
273 0 0 0
275 0 0 0
58 0 0 0
60 0 0 0
65 0 0 0
66 0 0 0
67 0 0 0
68 0 0 0
130 0 0 0
132 0 0 0
137 0 0 0
138 0 0 0
139 0 0 0
140 0 0 0
202 0 0 0
204 0 0 0
209 0 0 0
210 0 0 0
211 0 0 0
212 0 0 0
274 0 0 0
276 0 0 0
281 0 0 0
282 0 0 0
283 0 0 0
284 0 0 0
5 0 0 0
6 0 0 0
7 0 0 0
8 0 0 0
13 0 0 0
14 0 0 0
15 0 0 0
16 0 0 0
77 0 0 0
78 0 0 0
79 0 0 0
80 0 0 0
85 0 0 0
86 0 0 0
87 0 0 0
88 0 0 0
149 0 0 0
150 0 0 0
151 0 0 0
152 0 0 0
157 0 0 0
158 0 0 0
159 0 0 0
160 0 0 0
221 0 0 0
222 0 0 0
223 0 0 0
224 0 0 0
229 0 0 0
230 0 0 0
231 0 0 0
232 0 0 0
21 0 0 0
22 0 0 0
23 0 0 0
24 0 0 0
29 0 0 0
31 0 0 0
93 0 0 0
94 0 0 0
95 0 0 0
96 0 0 0
101 0 0 0
103 0 0 0
165 0 0 0
166 0 0 0
167 0 0 0
168 0 0 0
173 0 0 0
175 0 0 0
237 0 0 0
238 0 0 0
239 0 0 0
240 0 0 0
245 0 0 0
247 0 0 0
30 0 0 0
32 0 0 0
37 0 0 0
38 0 0 0
39 0 0 0
40 0 0 0
102 0 0 0
104 0 0 0
109 0 0 0
110 0 0 0
111 0 0 0
112 0 0 0
174 0 0 0
176 0 0 0
181 0 0 0
182 0 0 0
183 0 0 0
184 0 0 0
246 0 0 0
248 0 0 0
253 0 0 0
254 0 0 0
255 0 0 0
256 0 0 0
45 0 0 0
46 0 0 0
47 0 0 0
48 0 0 0
117 0 0 0
118 0 0 0
119 0 0 0
120 0 0 0
189 0 0 0
190 0 0 0
191 0 0 0
192 0 0 0
261 0 0 0
262 0 0 0
263 0 0 0
264 0 0 0
53 0 0 0
54 0 0 0
55 0 0 0
56 0 0 0
61 0 0 0
63 0 0 0
125 0 0 0
126 0 0 0
127 0 0 0
128 0 0 0
133 0 0 0
135 0 0 0
197 0 0 0
198 0 0 0
199 0 0 0
200 0 0 0
205 0 0 0
207 0 0 0
269 0 0 0
270 0 0 0
271 0 0 0
272 0 0 0
277 0 0 0
279 0 0 0
62 0 0 0
64 0 0 0
69 0 0 0
70 0 0 0
71 0 0 0
72 0 0 0
134 0 0 0
136 0 0 0
141 0 0 0
142 0 0 0
143 0 0 0
144 0 0 0
206 0 0 0
208 0 0 0
213 0 0 0
214 0 0 0
215 0 0 0
216 0 0 0
278 0 0 0
280 0 0 0
285 0 0 0
286 0 0 0
287 0 0 0
288 0 0 0
