LAMMPS data file via write_data, version 29 Aug 2024, timestep = 8, units = metal

288 atoms
1 atom types

0 11.317147 xlo xhi
0 25.863582 ylo yhi
0 11.317147 zlo zhi

Masses

1 55.8

Atoms # atomic

1 1 0 0 0 0 0 0
2 1 1.414643375 1.414643557616 1.414643375 0 0 0
3 1 0 0 2.82928675 0 0 0
4 1 1.414643375 1.414643557616 4.243930125 0 0 0
9 1 0 2.82928660596 0 0 0 0
10 1 1.4146433750000036 4.267326518992879 1.4146433750000045 0 0 0
11 1 0 2.82928660596 2.82928675 0 0 0
12 1 1.414643375000003 4.267326518992877 4.243930125000004 0 0 0
73 1 2.82928675 0 0 0 0 0
74 1 4.243930125 1.414643557616 1.414643375 0 0 0
75 1 2.82928675 0 2.82928675 0 0 0
76 1 4.243930125 1.414643557616 4.243930125 0 0 0
81 1 2.82928675 2.82928660596 0 0 0 0
82 1 4.243930125 4.26732651899288 1.4146433749999978 0 0 0
83 1 2.82928675 2.82928660596 2.82928675 0 0 0
84 1 4.243930124999995 4.267326518992883 4.243930124999998 0 0 0
145 1 5.6585735 0 0 0 0 0
146 1 7.073216875 1.414643557616 1.414643375 0 0 0
147 1 5.6585735 0 2.82928675 0 0 0
148 1 7.073216875 1.414643557616 4.243930125 0 0 0
153 1 5.6585735 2.82928660596 0 0 0 0
154 1 7.073216875000004 4.2673265189928795 1.4146433749999978 0 0 0
155 1 5.6585735 2.82928660596 2.82928675 0 0 0
156 1 7.0732168750000035 4.267326518992886 4.243930125000003 0 0 0
217 1 8.48786025 0 0 0 0 0
218 1 9.902503625 1.414643557616 1.414643375 0 0 0
219 1 8.48786025 0 2.82928675 0 0 0
220 1 9.902503625 1.414643557616 4.243930125 0 0 0
225 1 8.48786025 2.82928660596 0 0 0 0
226 1 9.902503624999992 4.267326518992881 1.414643375000003 0 0 0
227 1 8.48786025 2.82928660596 2.82928675 0 0 0
228 1 9.902503624999996 4.267326518992885 4.243930125000004 0 0 0
17 1 9.482200901409247e-16 5.704975201456324 11.317146999999997 0 0 -1
18 1 1.4146433749999994 7.1478436324873895 1.4146433749999963 0 0 0
19 1 11.317146999999997 5.704975201456315 2.82928675 -1 0 0
20 1 1.4146433750000047 7.14784363248739 4.243930125000004 0 0 0
25 1 7.096484729253443e-16 8.589510950876226 0 0 0 0
27 1 5.730408989301251e-16 8.589510950876232 2.8292867500000005 0 0 0
89 1 2.829286749999999 5.70497520145632 6.966748814432864e-16 0 0 0
90 1 4.243930124999997 7.1478436324873895 1.4146433749999978 0 0 0
91 1 2.8292867499999996 5.704975201456316 2.82928675 0 0 0
92 1 4.243930125000001 7.14784363248739 4.243930124999999 0 0 0
97 1 2.829286750000002 8.589510950876232 1.6641812213234971e-15 0 0 0
99 1 2.829286750000002 8.589510950876226 2.8292867500000005 0 0 0
161 1 5.658573499999995 5.7049752014563175 0 0 0 0
162 1 7.073216875000004 7.147843632487389 1.414643375000003 0 0 0
163 1 5.658573500000003 5.704975201456323 2.829286750000006 0 0 0
164 1 7.073216875000002 7.14784363248739 4.243930125000002 0 0 0
169 1 5.658573499999998 8.589510950876235 11.317146999999997 0 0 -1
171 1 5.658573500000003 8.589510950876232 2.8292867500000027 0 0 0
233 1 8.48786025 5.7049752014563175 11.317146999999997 0 0 -1
234 1 9.902503625 7.147843632487393 1.4146433749999987 0 0 0
235 1 8.48786025 5.7049752014563175 2.8292867499999983 0 0 0
236 1 9.902503624999998 7.147843632487387 4.243930124999997 0 0 0
241 1 8.487860250000004 8.58951095087623 1.4080749187501772e-15 0 0 0
243 1 8.48786025 8.589510950876228 2.829286749999995 0 0 0
26 1 1.414643374999998 10.030555118073142 1.414643374999996 0 0 0
28 1 1.4146433749999958 10.030555118073137 4.243930124999999 0 0 0
33 1 6.196317216459437e-15 11.47456849116988 5.942945412579654e-15 0 0 0
34 1 1.4146433749999987 12.918222842667344 1.414643374999995 0 0 0
35 1 2.0964834579334166e-15 11.474568491169876 2.8292867500000005 0 0 0
36 1 1.4146433749999985 12.91822284266734 4.243930124999994 0 0 0
98 1 4.243930125000001 10.030555118073144 1.4146433749999952 0 0 0
100 1 4.243930124999999 10.030555118073138 4.243930124999999 0 0 0
105 1 2.829286750000003 11.47456849116988 2.3900572453208417e-15 0 0 0
106 1 4.2439301249999986 12.918222842667346 1.414643374999999 0 0 0
107 1 2.8292867499999983 11.474568491169881 2.8292867499999996 0 0 0
108 1 4.243930125000001 12.918222842667351 4.243930124999999 0 0 0
170 1 7.073216875 10.030555118073142 1.414643375000004 0 0 0
172 1 7.073216874999998 10.030555118073138 4.243930125 0 0 0
177 1 5.658573499999999 11.474568491169878 4.641296132781107e-15 0 0 0
178 1 7.073216874999997 12.918222842667346 1.4146433750000054 0 0 0
179 1 5.658573500000002 11.47456849116988 2.8292867499999983 0 0 0
180 1 7.073216874999996 12.918222842667346 4.243930124999998 0 0 0
242 1 9.902503624999996 10.030555118073142 1.4146433750000007 0 0 0
244 1 9.902503625000003 10.030555118073137 4.243930124999996 0 0 0
249 1 8.48786025 11.474568491169876 7.410565593944966e-15 0 0 0
250 1 9.902503625 12.918222842667344 1.4146433750000003 0 0 0
251 1 8.487860249999997 11.474568491169876 2.8292867499999925 0 0 0
252 1 9.902503625000001 12.918222842667348 4.243930124999999 0 0 0
41 1 11.317146999999997 14.362012225264134 0 -1 0 0
42 1 1.4146433750000027 15.806116011191781 1.4146433750000027 0 0 0
43 1 11.317146999999999 14.362012225264142 2.82928675 -1 0 0
44 1 1.414643375000002 15.806116011191781 4.243930124999995 0 0 0
113 1 2.8292867499999996 14.362012225264133 11.317146999999999 0 0 -1
114 1 4.2439301249999986 15.806116011191781 1.4146433750000031 0 0 0
115 1 2.8292867500000045 14.36201222526414 2.829286750000003 0 0 0
116 1 4.243930125 15.80611601119178 4.243930124999998 0 0 0
185 1 5.6585735 14.362012225264131 2.5907552027609343e-15 0 0 0
186 1 7.073216874999995 15.806116011191786 1.4146433749999998 0 0 0
187 1 5.658573499999999 14.362012225264136 2.8292867500000045 0 0 0
188 1 7.0732168749999955 15.806116011191783 4.243930125000003 0 0 0
257 1 8.487860250000006 14.362012225264134 11.317146999999999 0 0 -1
258 1 9.902503625000001 15.806116011191778 1.4146433750000023 0 0 0
259 1 8.487860250000002 14.362012225264138 2.8292867499999983 0 0 0
260 1 9.902503625000005 15.80611601119178 4.243930125000001 0 0 0
49 1 1.5112640137214784e-15 17.251794277670655 2.2938573055226273e-15 0 0 0
50 1 1.4146433749999996 18.696312560591835 1.414643375000002 0 0 0
51 1 0 17.251794277670655 2.8292867500000054 0 0 0
52 1 1.4146433749999991 18.69631256059183 4.243930124999996 0 0 0
57 1 11.317146999999999 20.141213255727443 0 -1 0 0
59 1 0 20.141213255727443 2.829286750000006 0 0 0
121 1 2.8292867499999983 17.251794277670644 11.317146999999997 0 0 -1
122 1 4.243930125000006 18.69631256059184 1.4146433750000085 0 0 0
123 1 2.829286749999999 17.25179427767065 2.8292867500000005 0 0 0
124 1 4.243930124999999 18.696312560591842 4.243930125 0 0 0
129 1 2.829286749999999 20.141213255727447 4.389209500776445e-15 0 0 0
131 1 2.8292867500000027 20.141213255727447 2.829286750000004 0 0 0
193 1 5.658573500000001 17.251794277670648 11.317146999999999 0 0 -1
194 1 7.073216874999998 18.69631256059184 1.4146433749999994 0 0 0
195 1 5.658573500000002 17.251794277670648 2.82928675 0 0 0
196 1 7.073216874999998 18.69631256059184 4.243930125000002 0 0 0
201 1 5.658573500000003 20.141213255727447 5.8381028191107954e-15 0 0 0
203 1 5.658573499999997 20.14121325572744 2.8292867500000005 0 0 0
265 1 8.487860249999999 17.25179427767065 11.317146999999999 0 0 -1
266 1 9.902503625 18.696312560591835 1.414643375000002 0 0 0
267 1 8.487860249999997 17.25179427767065 2.82928675 0 0 0
268 1 9.902503624999998 18.69631256059184 4.243930124999998 0 0 0
273 1 8.487860249999994 20.141213255727443 11.317146999999999 0 0 -1
275 1 8.487860249999995 20.14121325572744 2.82928675 0 0 0
58 1 1.4146433750000031 21.576914690891364 1.4146433749999998 0 0 0
60 1 1.4146433750000054 21.576914690891364 4.243930124999999 0 0 0
65 1 0 23.03429539404 0 0 0 0
66 1 1.414643375 24.448937423841 1.414643375 0 0 0
67 1 0 23.03429539404 2.82928675 0 0 0
68 1 1.414643375 24.448937423841 4.243930125 0 0 0
130 1 4.243930125 21.576914690891364 1.4146433749999971 0 0 0
132 1 4.243930124999997 21.57691469089136 4.243930125000003 0 0 0
137 1 2.82928675 23.03429539404 0 0 0 0
138 1 4.243930125 24.448937423841 1.414643375 0 0 0
139 1 2.82928675 23.03429539404 2.82928675 0 0 0
140 1 4.243930125 24.448937423841 4.243930125 0 0 0
202 1 7.073216875 21.576914690891368 1.414643374999997 0 0 0
204 1 7.073216875 21.576914690891364 4.2439301250000065 0 0 0
209 1 5.6585735 23.03429539404 0 0 0 0
210 1 7.073216875 24.448937423841 1.414643375 0 0 0
211 1 5.6585735 23.03429539404 2.82928675 0 0 0
212 1 7.073216875 24.448937423841 4.243930125 0 0 0
274 1 9.902503625000001 21.576914690891364 1.414643374999995 0 0 0
276 1 9.902503624999998 21.57691469089136 4.243930125000005 0 0 0
281 1 8.48786025 23.03429539404 0 0 0 0
282 1 9.902503625 24.448937423841 1.414643375 0 0 0
283 1 8.48786025 23.03429539404 2.82928675 0 0 0
284 1 9.902503625 24.448937423841 4.243930125 0 0 0
5 1 0 0 5.6585735 0 0 0
6 1 1.414643375 1.414643557616 7.073216875 0 0 0
7 1 0 0 8.48786025 0 0 0
8 1 1.414643375 1.414643557616 9.902503625 0 0 0
13 1 0 2.82928660596 5.6585735 0 0 0
14 1 1.4146433750000051 4.267326518992886 7.0732168749999955 0 0 0
15 1 0 2.82928660596 8.48786025 0 0 0
16 1 1.4146433750000025 4.267326518992878 9.902503625000001 0 0 0
77 1 2.82928675 0 5.6585735 0 0 0
78 1 4.243930125 1.414643557616 7.073216875 0 0 0
79 1 2.82928675 0 8.48786025 0 0 0
80 1 4.243930125 1.414643557616 9.902503625 0 0 0
85 1 2.82928675 2.82928660596 5.6585735 0 0 0
86 1 4.243930124999995 4.26732651899289 7.073216874999998 0 0 0
87 1 2.82928675 2.82928660596 8.48786025 0 0 0
88 1 4.243930125000005 4.267326518992886 9.902503625 0 0 0
149 1 5.6585735 0 5.6585735 0 0 0
150 1 7.073216875 1.414643557616 7.073216875 0 0 0
151 1 5.6585735 0 8.48786025 0 0 0
152 1 7.073216875 1.414643557616 9.902503625 0 0 0
157 1 5.6585735 2.82928660596 5.6585735 0 0 0
158 1 7.073216875000002 4.267326518992885 7.073216875 0 0 0
159 1 5.6585735 2.82928660596 8.48786025 0 0 0
160 1 7.073216875000002 4.267326518992883 9.902503624999994 0 0 0
221 1 8.48786025 0 5.6585735 0 0 0
222 1 9.902503625 1.414643557616 7.073216875 0 0 0
223 1 8.48786025 0 8.48786025 0 0 0
224 1 9.902503625 1.414643557616 9.902503625 0 0 0
229 1 8.48786025 2.82928660596 5.6585735 0 0 0
230 1 9.902503624999998 4.26732651899288 7.073216875000001 0 0 0
231 1 8.48786025 2.82928660596 8.48786025 0 0 0
232 1 9.902503624999998 4.267326518992878 9.902503624999998 0 0 0
21 1 3.928327083363906e-16 5.704975201456314 5.6585734999999975 0 0 0
22 1 1.414643375000002 7.147843632487389 7.073216875000002 0 0 0
23 1 11.317146999999999 5.704975201456319 8.487860249999997 -1 0 0
24 1 1.4146433749999987 7.147843632487388 9.902503625 0 0 0
29 1 1.2577195618637994e-15 8.589510950876234 5.658573499999999 0 0 0
31 1 7.28505019504218e-18 8.589510950876235 8.487860249999997 0 0 0
93 1 2.82928675 5.704975201456316 5.658573500000003 0 0 0
94 1 4.243930124999994 7.147843632487388 7.073216875000003 0 0 0
95 1 2.82928675 5.704975201456316 8.487860249999997 0 0 0
96 1 4.243930125 7.147843632487385 9.902503625000001 0 0 0
101 1 2.8292867499999974 8.589510950876232 5.6585734999999975 0 0 0
103 1 2.8292867499999996 8.589510950876226 8.487860249999997 0 0 0
165 1 5.658573500000001 5.7049752014563175 5.658573499999999 0 0 0
166 1 7.073216875000002 7.147843632487387 7.073216874999999 0 0 0
167 1 5.658573500000001 5.704975201456317 8.48786025000001 0 0 0
168 1 7.073216874999998 7.147843632487384 9.902503624999996 0 0 0
173 1 5.658573500000005 8.589510950876228 5.658573499999993 0 0 0
175 1 5.658573499999995 8.589510950876228 8.487860250000004 0 0 0
237 1 8.487860249999999 5.7049752014563175 5.6585734999999975 0 0 0
238 1 9.902503625 7.147843632487387 7.073216875000002 0 0 0
239 1 8.487860249999997 5.704975201456312 8.487860250000002 0 0 0
240 1 9.902503625000001 7.147843632487389 9.902503625000005 0 0 0
245 1 8.487860249999997 8.589510950876228 5.6585735 0 0 0
247 1 8.48786025 8.589510950876228 8.487860250000002 0 0 0
30 1 1.4146433749999994 10.030555118073135 7.073216875000002 0 0 0
32 1 1.4146433749999963 10.030555118073142 9.902503625000001 0 0 0
37 1 4.025474902709122e-15 11.47456849116988 5.658573500000003 0 0 0
38 1 1.4146433750000025 12.918222842667346 7.073216875000002 0 0 0
39 1 11.317146999999997 11.47456849116987 8.487860249999999 -1 0 0
40 1 1.4146433750000023 12.918222842667348 9.902503625000005 0 0 0
102 1 4.243930125000001 10.03055511807314 7.073216875000005 0 0 0
104 1 4.243930125000003 10.030555118073142 9.902503625000001 0 0 0
109 1 2.829286750000001 11.474568491169878 5.6585734999999975 0 0 0
110 1 4.2439301249999986 12.918222842667344 7.073216875 0 0 0
111 1 2.8292867500000014 11.474568491169881 8.487860249999999 0 0 0
112 1 4.243930124999998 12.918222842667346 9.902503625000003 0 0 0
174 1 7.073216874999996 10.03055511807314 7.073216874999997 0 0 0
176 1 7.073216874999997 10.03055511807314 9.902503625000001 0 0 0
181 1 5.658573500000001 11.474568491169878 5.658573499999998 0 0 0
182 1 7.073216874999996 12.918222842667348 7.073216874999999 0 0 0
183 1 5.658573499999998 11.47456849116988 8.487860250000002 0 0 0
184 1 7.073216874999999 12.91822284266735 9.902503624999998 0 0 0
246 1 9.902503625000005 10.030555118073138 7.073216875000002 0 0 0
248 1 9.902503625 10.030555118073142 9.902503624999998 0 0 0
253 1 8.48786025 11.47456849116988 5.658573500000004 0 0 0
254 1 9.902503625 12.91822284266735 7.073216875000001 0 0 0
255 1 8.48786025 11.474568491169881 8.487860250000002 0 0 0
256 1 9.902503624999996 12.918222842667346 9.902503624999998 0 0 0
45 1 11.317146999999995 14.362012225264138 5.658573500000001 -1 0 0
46 1 1.414643375000003 15.806116011191783 7.073216875000001 0 0 0
47 1 11.317146999999999 14.362012225264136 8.487860249999999 -1 0 0
48 1 1.414643375000004 15.806116011191786 9.902503624999998 0 0 0
117 1 2.829286750000005 14.362012225264134 5.658573500000001 0 0 0
118 1 4.243930124999999 15.806116011191785 7.073216875000003 0 0 0
119 1 2.8292867499999996 14.362012225264136 8.487860249999997 0 0 0
120 1 4.243930125000001 15.806116011191786 9.902503625 0 0 0
189 1 5.6585735 14.362012225264134 5.658573499999997 0 0 0
190 1 7.073216875000001 15.806116011191786 7.073216875 0 0 0
191 1 5.6585735000000055 14.362012225264136 8.48786025 0 0 0
192 1 7.073216875000001 15.806116011191786 9.902503624999994 0 0 0
261 1 8.487860250000004 14.36201222526414 5.658573500000003 0 0 0
262 1 9.902503624999998 15.806116011191776 7.073216875000001 0 0 0
263 1 8.487860250000002 14.362012225264138 8.487860250000006 0 0 0
264 1 9.902503624999996 15.806116011191781 9.902503625 0 0 0
53 1 8.954032763346013e-16 17.251794277670648 5.658573499999997 0 0 0
54 1 1.414643374999997 18.69631256059184 7.073216874999997 0 0 0
55 1 8.028439862514023e-16 17.251794277670648 8.48786025 0 0 0
56 1 1.4146433749999985 18.696312560591835 9.902503625 0 0 0
61 1 3.513544984539995e-15 20.141213255727443 5.6585735 0 0 0
63 1 6.375986065312126e-15 20.14121325572744 8.487860250000002 0 0 0
125 1 2.829286750000001 17.25179427767065 5.658573500000003 0 0 0
126 1 4.243930124999999 18.696312560591842 7.073216874999996 0 0 0
127 1 2.8292867500000014 17.251794277670648 8.487860249999999 0 0 0
128 1 4.243930125000004 18.69631256059183 9.902503624999998 0 0 0
133 1 2.829286750000004 20.141213255727447 5.658573499999999 0 0 0
135 1 2.829286749999997 20.141213255727447 8.487860249999994 0 0 0
197 1 5.658573500000001 17.251794277670648 5.658573499999998 0 0 0
198 1 7.073216875000002 18.69631256059184 7.0732168749999955 0 0 0
199 1 5.658573499999999 17.251794277670644 8.487860249999997 0 0 0
200 1 7.073216875000003 18.696312560591835 9.902503625000003 0 0 0
205 1 5.658573500000001 20.141213255727443 5.6585734999999975 0 0 0
207 1 5.658573500000002 20.141213255727447 8.487860249999999 0 0 0
269 1 8.487860249999994 17.25179427767065 5.658573499999999 0 0 0
270 1 9.902503625000003 18.69631256059184 7.073216875000004 0 0 0
271 1 8.487860249999999 17.251794277670648 8.487860250000002 0 0 0
272 1 9.902503625 18.69631256059184 9.902503625 0 0 0
277 1 8.487860249999992 20.14121325572745 5.658573499999994 0 0 0
279 1 8.487860249999997 20.141213255727443 8.487860250000004 0 0 0
62 1 1.4146433749999978 21.57691469089136 7.073216875000003 0 0 0
64 1 1.4146433749999994 21.576914690891364 9.902503624999996 0 0 0
69 1 0 23.03429539404 5.6585735 0 0 0
70 1 1.414643375 24.448937423841 7.073216875 0 0 0
71 1 0 23.03429539404 8.48786025 0 0 0
72 1 1.414643375 24.448937423841 9.902503625 0 0 0
134 1 4.243930125000001 21.576914690891364 7.073216874999997 0 0 0
136 1 4.243930125000002 21.576914690891368 9.902503625 0 0 0
141 1 2.82928675 23.03429539404 5.6585735 0 0 0
142 1 4.243930125 24.448937423841 7.073216875 0 0 0
143 1 2.82928675 23.03429539404 8.48786025 0 0 0
144 1 4.243930125 24.448937423841 9.902503625 0 0 0
206 1 7.073216874999999 21.57691469089136 7.073216874999997 0 0 0
208 1 7.0732168750000035 21.57691469089136 9.902503625 0 0 0
213 1 5.6585735 23.03429539404 5.6585735 0 0 0
214 1 7.073216875 24.448937423841 7.073216875 0 0 0
215 1 5.6585735 23.03429539404 8.48786025 0 0 0
216 1 7.073216875 24.448937423841 9.902503625 0 0 0
278 1 9.902503624999998 21.576914690891368 7.073216874999998 0 0 0
280 1 9.902503624999998 21.576914690891364 9.902503625 0 0 0
285 1 8.48786025 23.03429539404 5.6585735 0 0 0
286 1 9.902503625 24.448937423841 7.073216875 0 0 0
287 1 8.48786025 23.03429539404 8.48786025 0 0 0
288 1 9.902503625 24.448937423841 9.902503625 0 0 0

Velocities

1 0 0 0
2 0 0 0
3 0 0 0
4 0 0 0
9 0 0 0
10 0 0 0
11 0 0 0
12 0 0 0
73 0 0 0
74 0 0 0
75 0 0 0
76 0 0 0
81 0 0 0
82 0 0 0
83 0 0 0
84 0 0 0
145 0 0 0
146 0 0 0
147 0 0 0
148 0 0 0
153 0 0 0
154 0 0 0
155 0 0 0
156 0 0 0
217 0 0 0
218 0 0 0
219 0 0 0
220 0 0 0
225 0 0 0
226 0 0 0
227 0 0 0
228 0 0 0
17 0 0 0
18 0 0 0
19 0 0 0
20 0 0 0
25 0 0 0
27 0 0 0
89 0 0 0
90 0 0 0
91 0 0 0
92 0 0 0
97 0 0 0
99 0 0 0
161 0 0 0
162 0 0 0
163 0 0 0
164 0 0 0
169 0 0 0
171 0 0 0
233 0 0 0
234 0 0 0
235 0 0 0
236 0 0 0
241 0 0 0
243 0 0 0
26 0 0 0
28 0 0 0
33 0 0 0
34 0 0 0
35 0 0 0
36 0 0 0
98 0 0 0
100 0 0 0
105 0 0 0
106 0 0 0
107 0 0 0
108 0 0 0
170 0 0 0
172 0 0 0
177 0 0 0
178 0 0 0
179 0 0 0
180 0 0 0
242 0 0 0
244 0 0 0
249 0 0 0
250 0 0 0
251 0 0 0
252 0 0 0
41 0 0 0
42 0 0 0
43 0 0 0
44 0 0 0
113 0 0 0
114 0 0 0
115 0 0 0
116 0 0 0
185 0 0 0
186 0 0 0
187 0 0 0
188 0 0 0
257 0 0 0
258 0 0 0
259 0 0 0
260 0 0 0
49 0 0 0
50 0 0 0
51 0 0 0
52 0 0 0
57 0 0 0
59 0 0 0
121 0 0 0
122 0 0 0
123 0 0 0
124 0 0 0
129 0 0 0
131 0 0 0
193 0 0 0
194 0 0 0
195 0 0 0
196 0 0 0
201 0 0 0
203 0 0 0
265 0 0 0
266 0 0 0
267 0 0 0
268 0 0 0
273 0 0 0
275 0 0 0
58 0 0 0
60 0 0 0
65 0 0 0
66 0 0 0
67 0 0 0
68 0 0 0
130 0 0 0
132 0 0 0
137 0 0 0
138 0 0 0
139 0 0 0
140 0 0 0
202 0 0 0
204 0 0 0
209 0 0 0
210 0 0 0
211 0 0 0
212 0 0 0
274 0 0 0
276 0 0 0
281 0 0 0
282 0 0 0
283 0 0 0
284 0 0 0
5 0 0 0
6 0 0 0
7 0 0 0
8 0 0 0
13 0 0 0
14 0 0 0
15 0 0 0
16 0 0 0
77 0 0 0
78 0 0 0
79 0 0 0
80 0 0 0
85 0 0 0
86 0 0 0
87 0 0 0
88 0 0 0
149 0 0 0
150 0 0 0
151 0 0 0
152 0 0 0
157 0 0 0
158 0 0 0
159 0 0 0
160 0 0 0
221 0 0 0
222 0 0 0
223 0 0 0
224 0 0 0
229 0 0 0
230 0 0 0
231 0 0 0
232 0 0 0
21 0 0 0
22 0 0 0
23 0 0 0
24 0 0 0
29 0 0 0
31 0 0 0
93 0 0 0
94 0 0 0
95 0 0 0
96 0 0 0
101 0 0 0
103 0 0 0
165 0 0 0
166 0 0 0
167 0 0 0
168 0 0 0
173 0 0 0
175 0 0 0
237 0 0 0
238 0 0 0
239 0 0 0
240 0 0 0
245 0 0 0
247 0 0 0
30 0 0 0
32 0 0 0
37 0 0 0
38 0 0 0
39 0 0 0
40 0 0 0
102 0 0 0
104 0 0 0
109 0 0 0
110 0 0 0
111 0 0 0
112 0 0 0
174 0 0 0
176 0 0 0
181 0 0 0
182 0 0 0
183 0 0 0
184 0 0 0
246 0 0 0
248 0 0 0
253 0 0 0
254 0 0 0
255 0 0 0
256 0 0 0
45 0 0 0
46 0 0 0
47 0 0 0
48 0 0 0
117 0 0 0
118 0 0 0
119 0 0 0
120 0 0 0
189 0 0 0
190 0 0 0
191 0 0 0
192 0 0 0
261 0 0 0
262 0 0 0
263 0 0 0
264 0 0 0
53 0 0 0
54 0 0 0
55 0 0 0
56 0 0 0
61 0 0 0
63 0 0 0
125 0 0 0
126 0 0 0
127 0 0 0
128 0 0 0
133 0 0 0
135 0 0 0
197 0 0 0
198 0 0 0
199 0 0 0
200 0 0 0
205 0 0 0
207 0 0 0
269 0 0 0
270 0 0 0
271 0 0 0
272 0 0 0
277 0 0 0
279 0 0 0
62 0 0 0
64 0 0 0
69 0 0 0
70 0 0 0
71 0 0 0
72 0 0 0
134 0 0 0
136 0 0 0
141 0 0 0
142 0 0 0
143 0 0 0
144 0 0 0
206 0 0 0
208 0 0 0
213 0 0 0
214 0 0 0
215 0 0 0
216 0 0 0
278 0 0 0
280 0 0 0
285 0 0 0
286 0 0 0
287 0 0 0
288 0 0 0
