LAMMPS data file via write_data, version 29 Aug 2024, timestep = 41, units = metal

256 atoms
2 atom types

0 14.06520962 xlo xhi
0 27.06401269 ylo yhi
0 8.12055266 zlo zhi

Masses

1 55.8
2 1

Atoms # atomic

14 1 1.057837382915 0.882609793183 6.031986631378 0 0 0
20 1 2.25573232562 1.447644730203 4.014404140079 0 0 0
119 1 2.244360603642 3.952166145731 8.064109215832 0 0 0
162 1 4.60370373332 3.201606388904 8.068442342731 0 0 0
164 1 3.418738515862 2.324412972245 1.977215467643 0 0 0
165 1 1.074861068727 3.19086264902 1.957023713454 0 0 0
171 1 4.591949718945 0.910111628979 4.018430797321 0 0 0
207 1 4.594340382624 3.209464162834 4.011853880516 0 0 0
209 1 3.426008119455 2.326209894442 6.036804230449 0 0 0
210 1 1.081883405934 3.179405063333 6.024229960683 0 0 0
211 1 2.253355164542 3.953160954879 4.005300432108 0 0 0
227 1 4.593113052432 0.910667836943 8.072870642508 0 0 0
230 1 1.069909552332 0.885056909312 1.980914216969 0 0 0
231 1 2.245764874171 1.436182171713 8.062433620996 0 0 0
16 1 8.109115727815 3.202888874678 6.027256896687 0 0 0
21 1 9.274888966746 3.965174251251 4.007438898446 0 0 0
25 1 6.930309524998 2.323694650918 4.010853915662 0 0 0
124 1 8.122515793672 3.208139656878 1.966794037592 0 0 0
125 1 9.297242101135 3.958866499871 8.056910427104 0 0 0
159 1 8.11083379317 0.898923817829 6.045176357831 0 0 0
160 1 9.274785306151 1.454175263136 4.000623562215 0 0 0
163 1 5.759295448311 3.956795327614 1.977751830146 0 0 0
168 1 8.0965370702 0.910650183494 1.979660403638 0 0 0
169 1 9.278640861412 1.456335448559 8.081283859885 0 0 0
172 1 5.742404960035 1.435417106043 6.045955118831 0 0 0
206 1 6.93382892175 2.31972088441 8.074350450819 0 0 0
208 1 5.771856665066 3.95392726375 6.049292584768 0 0 0
228 1 5.752460178392 1.422503732412 1.988217192387 0 0 0
1 1 11.630877262625 3.217544718318 3.977814716315 0 0 0
7 1 12.794040842563 3.956175965058 6.021759444947 0 0 0
11 1 10.452361787691 2.343884726503 6.028276756895 0 0 0
33 1 11.607959972679 0.912363562609 4.014394639032 0 0 0
36 1 12.802098379198 1.473576403598 6.01991250645 0 0 0
120 1 13.966959911241 2.329760724094 8.068561877266 0 0 0
121 1 11.629189718775 3.20945521179 8.058433193139 0 0 0
122 1 12.801934519506 3.956410929978 1.96886697107 0 0 0
123 1 10.462057921247 2.332371196787 1.958851649858 0 0 0
166 1 12.796014894733 1.441792984817 1.969021342776 0 0 0
213 1 13.964454616104 2.329442216092 3.985067750334 0 0 0
233 1 11.607715519335 0.915017298683 8.049571315227 0 0 0
12 1 3.418945257716729 4.910840001231895 1.973609233609598 0 0 0
19 1 1.0755750557166772 5.755737425137472 1.9696777210403653 0 0 0
28 1 2.2501700361832007 6.599548843192221 8.064110668104426 0 0 0
31 1 4.5939928630140505 5.7583177834151344 8.067928877612177 0 0 0
72 1 4.59247547181503 5.760808648535192 4.00351699136221 0 0 0
74 1 3.4233530511696473 4.911796551321548 6.037731811696955 0 0 0
75 1 1.0796649820403181 5.751748383626716 6.030602867992776 0 0 0
76 1 2.247714423124812 6.597259829642769 4.00157245819478 0 0 0
106 1 4.579660669876737 8.362305106093686 3.9982710197958844 0 0 0
108 1 3.4245362031702737 7.482538850036371 6.0362310300688575 0 0 0
109 1 1.0904727348151544 8.358420863015272 6.032352370421331 0 0 0
110 1 2.2486400124184622 9.2423551804152 3.9931106308176267 0 0 0
201 1 4.571233117494547 8.388017112419698 8.073352206469224 0 0 0
203 1 3.4126390582071813 7.4876577759775405 1.9701427285400164 0 0 0
204 1 1.0777826566479143 8.372057141517068 1.9730392802107577 0 0 0
205 1 2.2408894112519246 9.26311887911146 8.067713207525603 0 0 0
5 1 5.7611489557433835 6.614389264967474 1.9725043925545451 0 0 0
69 1 8.105402796140899 5.771066497269195 1.9732131293355832 0 0 0
70 1 9.27119754006597 6.621888115810624 8.060873138781185 0 0 0
71 1 6.942395283907275 4.916017637228716 8.06936604094703 0 0 0
73 1 5.763275160710195 6.602998311981264 6.037323746857064 0 0 0
81 1 8.108101009635835 5.762732290944983 6.032030764307412 0 0 0
107 1 5.710950286236538 9.237495502993774 6.032031849156789 0 0 0
130 1 8.088394011416256 8.412027232766938 1.9822248864165615 0 0 0
131 1 9.21325377507397 9.31798329005273 8.05743189746478 0 0 0
132 1 6.926611063017995 7.502950939446844 8.075105822757699 0 0 0
188 1 8.135243448809025 8.353763771454933 6.016027266437792 0 0 0
189 1 9.284855156687815 9.308821937389519 3.999792273372974 0 0 0
190 1 6.93350694646882 7.497303634618276 3.9980921004916157 0 0 0
199 1 9.274854484259299 6.6183158192218166 3.9996105873886134 0 0 0
200 1 6.934142519178424 4.916514597904505 4.002599764892407 0 0 0
202 1 5.738851518361519 9.283243138552768 1.973515508468437 0 0 0
32 1 13.970073412900724 4.911525633976845 8.057336660733846 0 0 0
35 1 11.62222003025336 5.759559988321272 8.060709314826674 0 0 0
38 1 12.795827375090584 6.61050881038396 1.9697293370754323 0 0 0
68 1 10.450450369511206 4.921150948687806 1.971063805688083 0 0 0
77 1 13.971789177934319 4.9156505888071385 3.9976198099030555 0 0 0
78 1 11.62345209194307 5.762356918371796 3.9966930860796426 0 0 0
79 1 12.799829285979005 6.598572958754955 6.0277525679584105 0 0 0
80 1 10.452828460820662 4.917252379389901 6.026638393285449 0 0 0
111 1 13.97387244457793 7.491331254278173 3.9989720016212043 0 0 0
112 1 11.622535393772345 8.374123613285288 3.9903710909021126 0 0 0
126 1 13.976857962936778 7.488825521308574 8.058267157533413 0 0 0
127 1 11.634575692826502 8.327909582245502 8.057474635895291 0 0 0
128 1 12.819382522174639 9.240223998783183 2.0128574021502996 0 0 0
129 1 10.437721233066798 7.493831759707955 1.9789338229390643 0 0 0
186 1 12.834252844391374 9.197841050123023 6.001448799277065 0 0 0
187 1 10.453020637032475 7.487980477569192 6.021094125298499 0 0 0
51 1 4.5180128044958 10.939810673541157 3.9700311681668974 0 0 0
53 1 3.409351202127997 10.162350114770494 6.05404654397011 0 0 0
54 1 1.0993441604671352 10.96116356550563 6.034860708989919 0 0 0
64 1 3.2925614676259385 13.47937126286697 6.088473082033209 0 0 0
152 1 3.3927439005584605 10.176523249837386 1.9583748547611486 0 0 0
153 1 1.1106515104221706 11.069514510338097 2.0124498472751906 0 0 0
154 1 2.149535167899964 11.926600448414105 8.071680167841084 0 0 0
177 1 2.2288869549645662 11.963735896828856 4.033660717771398 0 0 0
191 1 4.55130184092049 11.12376630772628 8.100847676590845 0 0 0
195 1 3.242900319069968 13.237182914456012 1.9979097788535003 0 0 0
243 2 3.1856317791605675 13.306517117319903 7.900961130535611 0 0 0
251 2 0.36611708527411463 11.93007257850966 4.734488110093125 0 0 0
252 2 3.7294912392460757 11.901174791630579 5.258218479020403 0 0 0
3 1 6.926736464960145 10.198836277231909 4.012988142394992 0 0 0
40 1 6.929763425616441 13.223636520327693 7.894264390306192 0 0 0
48 1 8.088548365173022 11.05981736709506 1.9908692306653168 0 0 0
49 1 9.22133121087695 12.021846605428584 8.118721565880305 0 0 0
50 1 6.881886517458544 10.253634637183925 8.107455371016295 0 0 0
52 1 5.6766386785494465 11.942324464068655 5.974993002855606 0 0 0
98 1 7.0060942218574045 13.48000389648045 4.1181651618125334 0 0 0
184 1 8.152657465950838 11.218206050291405 6.016667081129104 0 0 0
185 1 9.362191018692732 11.9964960520679 3.934089047204109 0 0 0
192 1 5.749761570131331 11.94342782168498 2.029302482780852 0 0 0
242 2 8.791607393082726 13.356231579083342 4.885887479813124 0 0 0
247 2 7.296315590828732 9.796714794018282 6.483280837329941 0 0 0
254 2 5.927450255593116 11.993635627273115 4.12524277652888 0 0 0
256 2 7.328395844847914 12.578840113071742 2.5755898096660346 0 0 0
34 1 10.589671068328744 13.43310582746003 1.8148975751647962 0 0 0
66 1 14.053715538053167 13.468761810822818 3.8815621732270715 0 0 0
96 1 10.433891890153463 13.327274509944493 6.065771299310665 0 0 0
155 1 14.013958618573943 10.20994131228595 8.054711665955574 0 0 0
156 1 11.593348509254902 11.292693648137504 8.044701701549624 0 0 0
157 1 12.853211490359618 12.079181904452067 2.040428076055961 0 0 0
158 1 10.445897268975667 10.247649922571965 2.0305026030382827 0 0 0
179 1 13.989744932435528 10.172457222616433 3.9933677360501445 0 0 0
181 1 11.643927121417832 11.07718744736427 4.015026525073989 0 0 0
182 1 12.908243084080986 12.119456519993983 5.957582148606691 0 0 0
183 1 10.43770338983637 10.225207649170065 6.0005791303215235 0 0 0
197 1 13.925764541483838 13.571410073863516 8.11058061229349 0 0 0
244 2 12.424333187170461 13.442520597617658 3.0387791153833588 0 0 0
245 2 0.33786626565947975 11.963207770724196 7.309240124279684 1 0 0
246 2 10.364683033833067 13.35721961440723 7.9961160173950345 0 0 -1
248 2 10.794665277664414 9.80856545127765 0.3790771219759141 0 0 0
253 2 12.082185118177044 10.692738521686685 6.486704845844842 0 0 0
255 2 12.763578535288918 10.678378169910204 1.050849271755702 0 0 0
63 1 2.2347952551676826 14.747296137379184 4.011242665040414 0 0 0
65 1 4.5851409919503086 15.567750016731939 4.025156488875268 0 0 0
67 1 1.064480842503843 15.56926800139735 6.041897253623725 0 0 0
89 1 2.2304590911691444 17.37732869795042 8.062829896911662 0 0 0
90 1 3.400984248574999 16.479570823149054 2.0003234350682435 0 0 0
174 1 2.238373934531768 17.377661375389703 4.0011794322693754 0 0 0
175 1 3.3972320561617537 16.48469718187012 6.0191424762136965 0 0 0
194 1 2.234328389852897 14.775694666988878 8.096387216183276 0 0 0
196 1 4.551100732100109 15.709570043081184 8.059094480024305 0 0 0
198 1 1.0616441854577738 15.60024431265792 1.9891197614275091 0 0 0
250 2 3.9651756914056744 14.836098023620297 1.4007913560485368 0 0 0
24 1 9.248510959048438 14.728772541607436 8.073515807468747 0 0 0
41 1 8.113457925848007 15.599346563027051 1.9801393532273133 0 0 0
43 1 9.264659398574073 17.351866176758367 3.9856838277429802 0 0 0
46 1 6.916707862124982 16.437917371338013 3.9936458190938118 0 0 0
62 1 5.714140390084426 14.773595836058574 6.05794055628876 0 0 0
88 1 5.764944172066042 17.38839340351122 1.9769232961744503 0 0 0
95 1 9.331314054842228 14.746590560705016 3.9721120368453273 0 0 0
99 1 8.090883920041348 15.557770418178613 5.998874412423813 0 0 0
101 1 9.258100111311657 17.344591311374053 8.06296119759752 0 0 0
104 1 6.943665935601996 16.443979078841657 8.05563465089111 0 0 0
173 1 5.754098515131407 17.375391407726234 6.02439885075802 0 0 0
193 1 5.756108721318642 14.756426478467844 1.9668276549982833 0 0 0
249 2 6.038073828430116 14.77620305119817 7.9553893534042395 0 0 -1
9 1 12.83317514630675 14.76126027310356 1.9921427131936562 0 0 0
39 1 11.643308474969755 15.502685437194467 0.002918841045536171 0 0 1
42 1 12.828843567845782 17.374495253564213 5.996914223699944 0 0 0
44 1 10.398649606840337 16.4184412496026 5.972504790561407 0 0 0
92 1 13.975586614964312 16.446134985738215 8.078589091010603 0 0 0
94 1 12.775654518278232 14.74805516752724 5.99688297694146 0 0 0
97 1 11.634924412009548 15.605901410004064 3.9748623834259718 0 0 0
100 1 12.79487765300527 17.360633622985763 1.9762506663855424 0 0 0
102 1 10.448664958608767 16.453885505879118 1.9728444746794043 0 0 0
178 1 13.97500828385414 16.464905076163653 4.004469313754003 0 0 0
241 2 11.603966947976723 16.875698278887686 7.110050649436489 0 0 0
91 1 4.5791748415356786 18.26186891832977 8.057955538129798 0 0 0
93 1 1.068751475333573 18.243401044110744 1.9729001757863451 0 0 0
114 1 2.2394377209124356 20.00231159339511 8.057993490509421 0 0 0
115 1 3.410124938556905 19.1384044882146 1.9700461764824762 0 0 0
116 1 4.5845046991169625 20.87967549663575 8.058470314891167 0 0 0
118 1 1.0635368392947757 20.87237354424676 1.966428158099025 0 0 0
134 1 2.2365613314858397 20.001851334390658 3.996701468742194 0 0 0
135 1 3.409955465925963 19.14263218507366 6.025610828093893 0 0 0
136 1 4.582854240456174 20.880666162583992 3.99841798502095 0 0 0
138 1 1.0667601720987765 20.877722940266633 6.025828861213732 0 0 0
176 1 4.580050876275775 18.24173735681037 4.000390981689504 0 0 0
180 1 1.0703065351179444 18.244389138670382 6.02613690254094 0 0 0
222 1 3.410765264601097 21.72600887969818 1.96741745982986 0 0 0
224 1 3.4125676721696276 21.7273129176278 6.027000271375321 0 0 0
23 1 6.925839656461713 21.73005528892361 3.999614041115023 0 0 0
47 1 8.097571656238422 18.22312352546471 6.026480032961186 0 0 0
83 1 9.264477227983974 19.998729437326062 3.998133704434285 0 0 0
86 1 6.926243987645741 19.12664603885191 3.998042990121098 0 0 0
87 1 8.095783137557742 20.87645860822904 6.0287128401336 0 0 0
105 1 8.099701180866271 18.241406085918634 1.9624575544030056 0 0 0
113 1 5.75644927110975 20.005392695461676 1.9688464522473053 0 0 0
133 1 5.755969234873193 20.001201947391863 6.026517693211241 0 0 0
147 1 9.267522086925618 19.996232891223553 8.058762549284305 0 0 0
150 1 6.92793161098584 19.12918463545897 8.054651740286184 0 0 0
151 1 8.09709273217052 20.879662790877816 1.9688844362091364 0 0 0
217 1 6.926989199373836 21.72886913798346 8.059769032049337 0 0 0
15 1 10.439031982797466 21.730405401272023 6.028179200004049 0 0 0
45 1 11.615482148981382 18.241379498088005 3.987169198693672 0 0 0
56 1 13.95904033682783 21.72587009659602 8.056081892548352 0 0 0
60 1 10.437882299679687 21.728243599935148 1.9685342520438656 0 0 0
82 1 12.788728616807635 20.001240090386137 6.026479750478042 0 0 0
84 1 10.433764476625274 19.14392085282493 6.01855220256831 0 0 0
85 1 11.611747450170698 20.87353696748498 3.9971894477100394 0 0 0
103 1 11.61127761124503 18.286845055847543 8.09574861320906 0 0 0
117 1 13.96693953859687 19.132421037049376 8.06318837997342 0 0 0
137 1 13.957179816348427 19.13282498474577 3.9988003297129513 0 0 0
146 1 12.784630342313912 19.99303598527428 1.9683923068662008 0 0 0
148 1 10.436162546368994 19.136733461569488 1.9733091077252407 0 0 0
149 1 11.612112885472278 20.878790502316292 8.059054897686988 0 0 0
226 1 13.955931337660557 21.721137531612026 3.9954005330764395 0 0 0
2 1 1.076727381391 23.486469888427 6.014516399208 0 0 0
4 1 3.40994705659 26.868465186677 6.018819642473 0 0 0
13 1 2.231707400416 25.219436872092 8.061255166394 0 0 0
17 1 3.400807342726 24.360067222931 1.978711111032 0 0 0
22 1 4.573483505235 25.817418863688 8.061385988497 0 0 0
30 1 1.048241393652 25.792818409533 1.955998087653 0 0 0
55 1 4.583388647805 23.508692099769 8.068630089909 0 0 0
57 1 1.05661244381 23.486834146213 1.962799781355 0 0 0
139 1 2.215835795925 25.236208145932 4.004391742266 0 0 0
140 1 3.405626364846 24.356368701043 6.018140358243 0 0 0
141 1 4.577589421227 25.801967620282 3.996477126821 0 0 0
143 1 1.058017558251 25.787563649091 6.048239430294 0 0 0
220 1 2.2391344713200905 22.583616099488165 8.056990989861145 0 0 0
223 1 2.2372716623921782 22.580415072490585 3.992112723416347 0 0 0
225 1 4.575138277146 23.508764702686 3.997607182929 0 0 0
229 1 3.394482639917 26.867230937087 1.985170036207 0 0 0
8 1 5.764516735426 25.255935750881 1.957580620955 0 0 0
10 1 9.267774916681146 22.592679236070758 3.997703464375946 0 0 0
27 1 8.098971336029 23.503884394275 6.036138669953 0 0 0
59 1 9.269328421495574 22.596057497905218 8.059019826632902 0 0 0
145 1 9.278891784752 25.240725439758 4.00373706331 0 0 0
161 1 6.939146555551 26.877497536567 4.006002941119 0 0 0
170 1 6.937718936774 26.880692313558 8.054253869507 0 0 0
215 1 6.92729760101 24.369423550906 3.993871809911 0 0 0
216 1 8.100270680094 25.800166222563 6.027167976635 0 0 0
218 1 5.754965316018113 22.592960674646502 1.9716419325608912 0 0 0
219 1 8.100162096675 23.513224312002 1.958446921513 0 0 0
221 1 5.7542076837586205 22.595444960362755 6.030193447214544 0 0 0
235 1 9.283640762128 25.286751710928 8.076086706183 0 0 0
238 1 6.935354434385 24.372930868536 8.07316631183 0 0 0
239 1 8.098209564276 25.814094047911 1.995625734989 0 0 0
240 1 5.744090534756 25.255448167592 6.033969020693 0 0 0
6 1 12.786791707076624 22.589077763545905 6.026993028114291 0 0 0
18 1 11.617012904198 23.489855621035 3.995117746306 0 0 0
26 1 13.958898717652 24.369825850631 8.04507131097 0 0 0
29 1 13.950212044191 26.879561746901 3.992627010394 0 0 0
37 1 10.444634783482 26.896639096737 6.03736714716 0 0 0
58 1 12.782786115343796 22.57900401806827 1.963062779840628 0 0 0
61 1 11.60650605196 23.50103274066 8.055540246254 0 0 0
142 1 13.957838200847 24.359328015833 3.993168326434 0 0 0
144 1 12.776089696829 25.24713687407 6.016990569192 0 0 0
167 1 10.442632460241 26.907563597992 1.981290523379 0 0 0
212 1 10.437962810647 24.38024660699 6.034886237116 0 0 0
214 1 11.622113933771 25.799369330956 3.997829767278 0 0 0
232 1 13.943125850932 26.897755988187 8.066013891458 0 0 0
234 1 12.783040582771 25.217976359987 1.975268646348 0 0 0
236 1 10.450743022716 24.377436476275 1.967506534883 0 0 0
237 1 11.635301333659 25.810247087868 8.073659229376 0 0 0

Velocities

14 0 0 0
20 0 0 0
119 0 0 0
162 0 0 0
164 0 0 0
165 0 0 0
171 0 0 0
207 0 0 0
209 0 0 0
210 0 0 0
211 0 0 0
227 0 0 0
230 0 0 0
231 0 0 0
16 0 0 0
21 0 0 0
25 0 0 0
124 0 0 0
125 0 0 0
159 0 0 0
160 0 0 0
163 0 0 0
168 0 0 0
169 0 0 0
172 0 0 0
206 0 0 0
208 0 0 0
228 0 0 0
1 0 0 0
7 0 0 0
11 0 0 0
33 0 0 0
36 0 0 0
120 0 0 0
121 0 0 0
122 0 0 0
123 0 0 0
166 0 0 0
213 0 0 0
233 0 0 0
12 0 0 0
19 0 0 0
28 0 0 0
31 0 0 0
72 0 0 0
74 0 0 0
75 0 0 0
76 0 0 0
106 0 0 0
108 0 0 0
109 0 0 0
110 0 0 0
201 0 0 0
203 0 0 0
204 0 0 0
205 0 0 0
5 0 0 0
69 0 0 0
70 0 0 0
71 0 0 0
73 0 0 0
81 0 0 0
107 0 0 0
130 0 0 0
131 0 0 0
132 0 0 0
188 0 0 0
189 0 0 0
190 0 0 0
199 0 0 0
200 0 0 0
202 0 0 0
32 0 0 0
35 0 0 0
38 0 0 0
68 0 0 0
77 0 0 0
78 0 0 0
79 0 0 0
80 0 0 0
111 0 0 0
112 0 0 0
126 0 0 0
127 0 0 0
128 0 0 0
129 0 0 0
186 0 0 0
187 0 0 0
51 0 0 0
53 0 0 0
54 0 0 0
64 0 0 0
152 0 0 0
153 0 0 0
154 0 0 0
177 0 0 0
191 0 0 0
195 0 0 0
243 0 0 0
251 0 0 0
252 0 0 0
3 0 0 0
40 0 0 0
48 0 0 0
49 0 0 0
50 0 0 0
52 0 0 0
98 0 0 0
184 0 0 0
185 0 0 0
192 0 0 0
242 0 0 0
247 0 0 0
254 0 0 0
256 0 0 0
34 0 0 0
66 0 0 0
96 0 0 0
155 0 0 0
156 0 0 0
157 0 0 0
158 0 0 0
179 0 0 0
181 0 0 0
182 0 0 0
183 0 0 0
197 0 0 0
244 0 0 0
245 0 0 0
246 0 0 0
248 0 0 0
253 0 0 0
255 0 0 0
63 0 0 0
65 0 0 0
67 0 0 0
89 0 0 0
90 0 0 0
174 0 0 0
175 0 0 0
194 0 0 0
196 0 0 0
198 0 0 0
250 0 0 0
24 0 0 0
41 0 0 0
43 0 0 0
46 0 0 0
62 0 0 0
88 0 0 0
95 0 0 0
99 0 0 0
101 0 0 0
104 0 0 0
173 0 0 0
193 0 0 0
249 0 0 0
9 0 0 0
39 0 0 0
42 0 0 0
44 0 0 0
92 0 0 0
94 0 0 0
97 0 0 0
100 0 0 0
102 0 0 0
178 0 0 0
241 0 0 0
91 0 0 0
93 0 0 0
114 0 0 0
115 0 0 0
116 0 0 0
118 0 0 0
134 0 0 0
135 0 0 0
136 0 0 0
138 0 0 0
176 0 0 0
180 0 0 0
222 0 0 0
224 0 0 0
23 0 0 0
47 0 0 0
83 0 0 0
86 0 0 0
87 0 0 0
105 0 0 0
113 0 0 0
133 0 0 0
147 0 0 0
150 0 0 0
151 0 0 0
217 0 0 0
15 0 0 0
45 0 0 0
56 0 0 0
60 0 0 0
82 0 0 0
84 0 0 0
85 0 0 0
103 0 0 0
117 0 0 0
137 0 0 0
146 0 0 0
148 0 0 0
149 0 0 0
226 0 0 0
2 0 0 0
4 0 0 0
13 0 0 0
17 0 0 0
22 0 0 0
30 0 0 0
55 0 0 0
57 0 0 0
139 0 0 0
140 0 0 0
141 0 0 0
143 0 0 0
220 0 0 0
223 0 0 0
225 0 0 0
229 0 0 0
8 0 0 0
10 0 0 0
27 0 0 0
59 0 0 0
145 0 0 0
161 0 0 0
170 0 0 0
215 0 0 0
216 0 0 0
218 0 0 0
219 0 0 0
221 0 0 0
235 0 0 0
238 0 0 0
239 0 0 0
240 0 0 0
6 0 0 0
18 0 0 0
26 0 0 0
29 0 0 0
37 0 0 0
58 0 0 0
61 0 0 0
142 0 0 0
144 0 0 0
167 0 0 0
212 0 0 0
214 0 0 0
232 0 0 0
234 0 0 0
236 0 0 0
237 0 0 0
