LAMMPS data file via write_data, version 29 Aug 2024, timestep = 9, units = metal

240 atoms
1 atom types

0 13.98284573 xlo xhi
0 27.51841258 ylo yhi
0 8.07299975 zlo zhi

Masses

1 55.8

Atoms # atomic

14 1 1.104123392353 0.978309288037 6.019465798333 0 0 0
20 1 2.26936048991 1.511660948117 4.001215860833 0 0 0
119 1 2.2693605433693627 4.066963172305543 8.03771573583301 0 0 0
162 1 4.599834824853 3.240284549262 8.037715735833 0 0 0
164 1 3.434597727296 2.374575787602 1.982965923333 0 0 0
165 1 1.104123392353 3.240284549262 1.982965923333 0 0 0
171 1 4.599834824853 0.978309288037 4.001215860833 0 0 0
207 1 4.599834824853 3.240284549262 4.001215860833 0 0 0
209 1 3.434597727296 2.374575787602 6.019465798333 0 0 0
210 1 1.104123392353 3.240284549262 6.019465798333 0 0 0
211 1 2.269360543369366 4.066963172305529 4.001215860833007 0 0 0
227 1 4.599834824853 0.978309288037 8.037715735833 0 0 0
230 1 1.104123392353 0.978309288037 1.982965923333 0 0 0
231 1 2.26936048991 1.511660948117 8.037715735833 0 0 0
16 1 8.095546257353 3.240284549262 6.019465798333 0 0 0
21 1 9.260783408369363 4.066963172305531 4.001215860833 0 0 0
25 1 6.930309159796 2.374575787602 4.001215860833 0 0 0
124 1 8.095546257353 3.240284549262 1.982965923333 0 0 0
125 1 9.260783408369363 4.066963172305539 8.037715735833007 0 0 0
159 1 8.095546257353 0.978309288037 6.019465798333 0 0 0
160 1 9.26078335491 1.511660948117 4.001215860833 0 0 0
163 1 5.765071975869363 4.066963172305537 1.9829659233329977 0 0 0
168 1 8.095546257353 0.978309288037 1.982965923333 0 0 0
169 1 9.26078335491 1.511660948117 8.037715735833 0 0 0
172 1 5.76507192241 1.511660948117 6.019465798333 0 0 0
206 1 6.930309159796 2.374575787602 8.037715735833 0 0 0
208 1 5.765071975869366 4.066963172305535 6.019465798332995 0 0 0
228 1 5.76507192241 1.511660948117 1.982965923333 0 0 0
1 1 11.591257689853 3.240284549262 4.001215860833 0 0 0
7 1 12.75649484086936 4.066963172305539 6.019465798332989 0 0 0
11 1 10.426020592296 2.374575787602 6.019465798333 0 0 0
33 1 11.591257689853 0.978309288037 4.001215860833 0 0 0
36 1 12.75649478741 1.511660948117 6.019465798333 0 0 0
120 1 13.921732024796 2.374575787602 8.037715735833 0 0 0
121 1 11.591257689853 3.240284549262 8.037715735833 0 0 0
122 1 12.756494840869363 4.066963172305541 1.982965923332996 0 0 0
123 1 10.426020592296 2.374575787602 1.982965923333 0 0 0
166 1 12.75649478741 1.511660948117 1.982965923333 0 0 0
213 1 13.921732024796 2.374575787602 4.001215860833 0 0 0
233 1 11.591257689853 0.978309288037 8.037715735833 0 0 0
12 1 3.4345976888833647 4.909862422867191 1.982965923332986 0 0 0
19 1 1.1041234010265768 5.71981788142206 1.9829659233329726 0 0 0
28 1 2.2693605446244245 6.5514417443846416 8.037715735833013 0 0 0
31 1 4.599834833526587 5.7198178814220535 8.03771573583302 0 0 0
72 1 4.59983483352659 5.719817881422066 4.001215860833009 0 0 0
74 1 3.434597688883354 4.909862422867191 6.01946579833299 0 0 0
75 1 1.1041234010265917 5.71981788142207 6.019465798332985 0 0 0
76 1 2.2693605446244414 6.5514417443846495 4.0012158608330335 0 0 0
106 1 4.599834831769964 8.194262153372707 4.001215860833014 0 0 0
108 1 3.4345976888442253 7.37826132358183 6.019465798332969 0 0 0
109 1 1.1041233992699757 8.194262153372705 6.01946579833299 0 0 0
110 1 2.2693605424916763 9.027040752442245 4.001215860833014 0 0 0
201 1 4.599834831769979 8.194262153372723 8.037715735833029 0 0 0
203 1 3.434597688844257 7.378261323581831 1.9829659233329824 0 0 0
204 1 1.1041233992699684 8.194262153372716 1.9829659233329815 0 0 0
205 1 2.2693605424916714 9.027040752442248 8.037715735833007 0 0 0
5 1 5.765071977124425 6.551441744384646 1.9829659233329886 0 0 0
69 1 8.095546266026593 5.71981788142206 1.9829659233329908 0 0 0
70 1 9.26078340962444 6.551441744384641 8.037715735833011 0 0 0
71 1 6.930309121383364 4.909862422867189 8.037715735833006 0 0 0
73 1 5.765071977124454 6.551441744384644 6.019465798332975 0 0 0
81 1 8.095546266026572 5.719817881422069 6.01946579833299 0 0 0
107 1 5.765071974991683 9.027040752442245 6.01946579833299 0 0 0
130 1 8.095546264269984 8.194262153372712 1.9829659233329855 0 0 0
131 1 9.260783407491681 9.02704075244224 8.037715735833013 0 0 0
132 1 6.930309121344242 7.378261323581828 8.037715735833006 0 0 0
188 1 8.09554626426996 8.194262153372701 6.019465798332988 0 0 0
189 1 9.260783407491674 9.027040752442241 4.001215860833004 0 0 0
190 1 6.930309121344242 7.378261323581817 4.00121586083303 0 0 0
199 1 9.260783409624437 6.551441744384647 4.001215860833005 0 0 0
200 1 6.930309121383357 4.909862422867199 4.0012158608330095 0 0 0
202 1 5.765071974991661 9.02704075244224 1.9829659233329744 0 0 0
32 1 13.921731986383369 4.90986242286719 8.03771573583302 0 0 0
35 1 11.591257698526572 5.71981788142206 8.037715735833011 0 0 0
38 1 12.756494842124432 6.551441744384637 1.982965923332998 0 0 0
68 1 10.42602055388336 4.909862422867193 1.9829659233329886 0 0 0
77 1 13.92173198638335 4.909862422867196 4.001215860833011 0 0 0
78 1 11.591257698526595 5.719817881422066 4.00121586083301 0 0 0
79 1 12.756494842124429 6.5514417443846416 6.019465798332974 0 0 0
80 1 10.42602055388337 4.909862422867188 6.019465798332997 0 0 0
111 1 13.921731986344238 7.378261323581821 4.001215860833017 0 0 0
112 1 11.591257696769967 8.194262153372701 4.001215860833007 0 0 0
126 1 13.921731986344257 7.378261323581829 8.037715735833014 0 0 0
127 1 11.591257696769956 8.194262153372714 8.037715735833002 0 0 0
128 1 12.756494839991676 9.027040752442245 1.9829659233329944 0 0 0
129 1 10.42602055384424 7.378261323581823 1.9829659233329924 0 0 0
186 1 12.75649483999167 9.027040752442243 6.019465798332997 0 0 0
187 1 10.42602055384425 7.3782613235818255 6.019465798332994 0 0 0
51 1 4.599834829428508 10.735720925996468 4.001215860833006 0 0 0
53 1 3.434597685635913 9.866894547477711 6.0194657983329956 0 0 0
54 1 1.1041233969285034 10.735720925996468 6.019465798333 0 0 0
64 1 3.43459768157904 12.279450230594403 6.019465798333002 0 0 0
152 1 3.4345976856359224 9.866894547477706 1.982965923332992 0 0 0
153 1 1.104123396928499 10.735720925996466 1.9829659233329944 0 0 0
154 1 2.2693605383177466 11.492274188669683 8.037715735832997 0 0 0
177 1 2.2693605383177493 11.492274188669692 4.0012158608330015 0 0 0
191 1 4.599834829428506 10.735720925996464 8.037715735833002 0 0 0
195 1 3.4345976815790387 12.279450230594408 1.9829659233329968 0 0 0
3 1 6.930309118135919 9.866894547477713 4.001215860833017 0 0 0
40 1 6.930309114079039 12.279450230594414 8.037715735833002 0 0 0
48 1 8.09554626192851 10.735720925996462 1.9829659233329981 0 0 0
49 1 9.260783403317753 11.492274188669684 8.037715735833002 0 0 0
50 1 6.930309118135907 9.866894547477703 8.037715735833006 0 0 0
52 1 5.765071970817757 11.49227418866969 6.019465798332995 0 0 0
98 1 6.930309114079043 12.27945023059441 4.001215860833001 0 0 0
184 1 8.095546261928506 10.735720925996462 6.01946579833299 0 0 0
185 1 9.260783403317747 11.492274188669683 4.001215860833006 0 0 0
192 1 5.765071970817748 11.492274188669693 1.9829659233329973 0 0 0
34 1 10.42602054657904 12.279450230594408 1.9829659233330017 0 0 0
66 1 13.921731979079034 12.279450230594396 4.001215860832995 0 0 0
96 1 10.42602054657904 12.279450230594396 6.019465798332998 0 0 0
155 1 13.921731983135915 9.86689454747771 8.037715735833004 0 0 0
156 1 11.591257694428503 10.735720925996459 8.037715735832998 0 0 0
157 1 12.756494835817751 11.492274188669684 1.9829659233329968 0 0 0
158 1 10.426020550635904 9.8668945474777 1.9829659233329928 0 0 0
179 1 13.921731983135912 9.866894547477708 4.0012158608330015 0 0 0
181 1 11.591257694428501 10.73572092599646 4.001215860833002 0 0 0
182 1 12.75649483581775 11.492274188669686 6.019465798332998 0 0 0
183 1 10.42602055063591 9.8668945474777 6.019465798332997 0 0 0
197 1 13.921731979079036 12.279450230594403 8.037715735833004 0 0 0
63 1 2.2693605335358087 15.770191352067775 4.001215860833001 0 0 0
65 1 4.599834821767744 16.654312771489145 4.001215860833004 0 0 0
67 1 1.1041233892677411 16.654312771489142 6.019465798333004 0 0 0
90 1 3.4345976784367074 17.382070777586414 1.9829659233330015 0 0 0
175 1 3.434597678436721 17.382070777586414 6.019465798332996 0 0 0
194 1 2.2693605335358082 15.77019135206777 8.037715735833002 0 0 0
196 1 4.599834821767746 16.654312771489145 8.037715735833002 0 0 0
198 1 1.1041233892677496 16.654312771489145 1.9829659233329966 0 0 0
24 1 9.260783398535807 15.770191352067775 8.037715735833 0 0 0
41 1 8.095546254267743 16.65431277148915 1.9829659233330006 0 0 0
46 1 6.930309110936714 17.38207077758641 4.001215860832998 0 0 0
62 1 5.765071966035816 15.770191352067776 6.019465798333 0 0 0
95 1 9.260783398535812 15.770191352067775 4.0012158608330015 0 0 0
99 1 8.095546254267747 16.654312771489142 6.019465798332996 0 0 0
104 1 6.9303091109367125 17.382070777586414 8.037715735833002 0 0 0
193 1 5.76507196603581 15.770191352067783 1.9829659233330006 0 0 0
9 1 12.756494831035806 15.770191352067776 1.9829659233329981 0 0 0
39 1 11.591257686767747 16.65431277148915 8.037715735833 0 0 0
44 1 10.426020543436719 17.382070777586414 6.019465798333 0 0 0
92 1 13.921731975936714 17.382070777586414 8.037715735833002 0 0 0
94 1 12.756494831035806 15.770191352067775 6.019465798333003 0 0 0
97 1 11.591257686767744 16.654312771489153 4.001215860832999 0 0 0
102 1 10.426020543436715 17.382070777586414 1.9829659233330004 0 0 0
178 1 13.921731975936709 17.382070777586414 4.001215860832998 0 0 0
89 1 2.269360533081095 18.234614020857453 8.037715735833011 0 0 0
91 1 4.599834823046564 19.101612059969217 8.037715735833 0 0 0
93 1 1.1041233905465804 19.101612059969217 1.9829659233329988 0 0 0
114 1 2.2693605351984765 20.747594407408354 8.037715735833013 0 0 0
115 1 3.434597679522026 19.92706810283901 1.9829659233329928 0 0 0
116 1 4.59983482490142 21.579418366067674 8.037715735832997 0 0 0
118 1 1.1041233924014247 21.57941836606767 1.9829659233329824 0 0 0
134 1 2.269360535198478 20.747594407408343 4.001215860833006 0 0 0
135 1 3.434597679522046 19.92706810283902 6.019465798332988 0 0 0
136 1 4.599834824901423 21.57941836606767 4.001215860833006 0 0 0
138 1 1.1041233924014022 21.57941836606766 6.0194657983329956 0 0 0
174 1 2.269360533081103 18.234614020857464 4.001215860832992 0 0 0
176 1 4.5998348230465576 19.101612059969217 4.001215860833014 0 0 0
180 1 1.1041233905465562 19.101612059969234 6.019465798332997 0 0 0
222 1 3.4345976814726447 22.405239053739724 1.982965923332997 0 0 0
224 1 3.4345976814726624 22.405239053739717 6.019465798333001 0 0 0
23 1 6.930309113972654 22.40523905373971 4.001215860832985 0 0 0
43 1 9.2607833980811 18.234614020857453 4.001215860832997 0 0 0
47 1 8.095546255546571 19.101612059969234 6.019465798333001 0 0 0
83 1 9.260783400198468 20.747594407408354 4.001215860833015 0 0 0
86 1 6.930309112022045 19.927068102839026 4.001215860833 0 0 0
87 1 8.095546257401438 21.579418366067657 6.019465798333001 0 0 0
88 1 5.7650719655811 18.234614020857453 1.9829659233329946 0 0 0
101 1 9.260783398081099 18.234614020857457 8.037715735833002 0 0 0
105 1 8.09554625554656 19.10161205996921 1.9829659233329997 0 0 0
113 1 5.765071967698494 20.747594407408354 1.982965923333004 0 0 0
133 1 5.765071967698474 20.747594407408343 6.019465798332997 0 0 0
147 1 9.26078340019848 20.747594407408346 8.03771573583298 0 0 0
150 1 6.930309112022043 19.92706810283902 8.037715735832998 0 0 0
151 1 8.095546257401404 21.579418366067674 1.9829659233330073 0 0 0
173 1 5.765071965581091 18.234614020857457 6.0194657983329956 0 0 0
217 1 6.930309113972651 22.405239053739717 8.037715735833006 0 0 0
15 1 10.426020546472643 22.405239053739713 6.019465798333007 0 0 0
42 1 12.756494830581095 18.234614020857464 6.019465798332999 0 0 0
45 1 11.591257688046568 19.101612059969213 4.001215860832996 0 0 0
56 1 13.921731978972657 22.405239053739713 8.037715735833004 0 0 0
60 1 10.426020546472662 22.40523905373972 1.9829659233329993 0 0 0
82 1 12.756494832698493 20.74759440740835 6.019465798333001 0 0 0
84 1 10.42602054452203 19.927068102839026 6.01946579833301 0 0 0
85 1 11.591257689901433 21.579418366067678 4.001215860832993 0 0 0
100 1 12.756494830581085 18.234614020857457 1.9829659233330033 0 0 0
103 1 11.591257688046564 19.101612059969224 8.037715735832998 0 0 0
117 1 13.921731977022043 19.927068102839023 8.03771573583299 0 0 0
137 1 13.92173197702204 19.927068102839023 4.001215860833013 0 0 0
146 1 12.756494832698472 20.74759440740836 1.9829659233329968 0 0 0
148 1 10.426020544522054 19.927068102839012 1.9829659233329964 0 0 0
149 1 11.591257689901418 21.579418366067667 8.037715735833002 0 0 0
226 1 13.921731978972641 22.405239053739717 4.00121586083301 0 0 0
2 1 1.104123392353 24.062058453958 6.019465798333 0 0 0
4 1 3.434597727296 27.41037779161 6.019465798333 0 0 0
13 1 2.26936048991 25.790681807918 8.037715735833 0 0 0
17 1 3.434597727296 24.927767215617 1.982965923333 0 0 0
22 1 4.599834824853 26.324033467998 8.037715735833 0 0 0
30 1 1.104123392353 26.324033467998 1.982965923333 0 0 0
55 1 4.599834824853 24.062058453958 8.037715735833 0 0 0
57 1 1.104123392353 24.062058453958 1.982965923333 0 0 0
139 1 2.26936048991 25.790681807918 4.001215860833 0 0 0
140 1 3.434597727296 24.927767215617 6.019465798333 0 0 0
141 1 4.599834824853 26.324033467998 4.001215860833 0 0 0
143 1 1.104123392353 26.324033467998 6.019465798333 0 0 0
220 1 2.269360538400039 23.227878100933573 8.037715735833004 0 0 0
223 1 2.269360538400045 23.22787810093358 4.001215860832998 0 0 0
225 1 4.599834824853 24.062058453958 4.001215860833 0 0 0
229 1 3.434597727296 27.41037779161 1.982965923333 0 0 0
8 1 5.76507192241 25.790681807918 1.982965923333 0 0 0
10 1 9.260783403400042 23.22787810093358 4.001215860832999 0 0 0
27 1 8.095546257353 24.062058453958 6.019465798333 0 0 0
59 1 9.260783403400044 23.22787810093358 8.037715735832995 0 0 0
145 1 9.26078335491 25.790681807918 4.001215860833 0 0 0
161 1 6.930309159796 27.41037779161 4.001215860833 0 0 0
170 1 6.930309159796 27.41037779161 8.037715735833 0 0 0
215 1 6.930309159796 24.927767215617 4.001215860833 0 0 0
216 1 8.095546257353 26.324033467998 6.019465798333 0 0 0
218 1 5.7650719709000455 23.227878100933573 1.982965923333002 0 0 0
219 1 8.095546257353 24.062058453958 1.982965923333 0 0 0
221 1 5.7650719709000295 23.22787810093358 6.019465798333003 0 0 0
235 1 9.26078335491 25.790681807918 8.037715735833 0 0 0
238 1 6.930309159796 24.927767215617 8.037715735833 0 0 0
239 1 8.095546257353 26.324033467998 1.982965923333 0 0 0
240 1 5.76507192241 25.790681807918 6.019465798333 0 0 0
6 1 12.756494835900046 23.227878100933577 6.019465798332994 0 0 0
18 1 11.591257689853 24.062058453958 4.001215860833 0 0 0
26 1 13.921732024796 24.927767215617 8.037715735833 0 0 0
29 1 13.921732024796 27.41037779161 4.001215860833 0 0 0
37 1 10.426020592296 27.41037779161 6.019465798333 0 0 0
58 1 12.756494835900037 23.22787810093358 1.9829659233330037 0 0 0
61 1 11.591257689853 24.062058453958 8.037715735833 0 0 0
142 1 13.921732024796 24.927767215617 4.001215860833 0 0 0
144 1 12.75649478741 25.790681807918 6.019465798333 0 0 0
167 1 10.426020592296 27.41037779161 1.982965923333 0 0 0
212 1 10.426020592296 24.927767215617 6.019465798333 0 0 0
214 1 11.591257689853 26.324033467998 4.001215860833 0 0 0
232 1 13.921732024796 27.41037779161 8.037715735833 0 0 0
234 1 12.75649478741 25.790681807918 1.982965923333 0 0 0
236 1 10.426020592296 24.927767215617 1.982965923333 0 0 0
237 1 11.591257689853 26.324033467998 8.037715735833 0 0 0

Velocities

14 0 0 0
20 0 0 0
119 0 0 0
162 0 0 0
164 0 0 0
165 0 0 0
171 0 0 0
207 0 0 0
209 0 0 0
210 0 0 0
211 0 0 0
227 0 0 0
230 0 0 0
231 0 0 0
16 0 0 0
21 0 0 0
25 0 0 0
124 0 0 0
125 0 0 0
159 0 0 0
160 0 0 0
163 0 0 0
168 0 0 0
169 0 0 0
172 0 0 0
206 0 0 0
208 0 0 0
228 0 0 0
1 0 0 0
7 0 0 0
11 0 0 0
33 0 0 0
36 0 0 0
120 0 0 0
121 0 0 0
122 0 0 0
123 0 0 0
166 0 0 0
213 0 0 0
233 0 0 0
12 0 0 0
19 0 0 0
28 0 0 0
31 0 0 0
72 0 0 0
74 0 0 0
75 0 0 0
76 0 0 0
106 0 0 0
108 0 0 0
109 0 0 0
110 0 0 0
201 0 0 0
203 0 0 0
204 0 0 0
205 0 0 0
5 0 0 0
69 0 0 0
70 0 0 0
71 0 0 0
73 0 0 0
81 0 0 0
107 0 0 0
130 0 0 0
131 0 0 0
132 0 0 0
188 0 0 0
189 0 0 0
190 0 0 0
199 0 0 0
200 0 0 0
202 0 0 0
32 0 0 0
35 0 0 0
38 0 0 0
68 0 0 0
77 0 0 0
78 0 0 0
79 0 0 0
80 0 0 0
111 0 0 0
112 0 0 0
126 0 0 0
127 0 0 0
128 0 0 0
129 0 0 0
186 0 0 0
187 0 0 0
51 0 0 0
53 0 0 0
54 0 0 0
64 0 0 0
152 0 0 0
153 0 0 0
154 0 0 0
177 0 0 0
191 0 0 0
195 0 0 0
3 0 0 0
40 0 0 0
48 0 0 0
49 0 0 0
50 0 0 0
52 0 0 0
98 0 0 0
184 0 0 0
185 0 0 0
192 0 0 0
34 0 0 0
66 0 0 0
96 0 0 0
155 0 0 0
156 0 0 0
157 0 0 0
158 0 0 0
179 0 0 0
181 0 0 0
182 0 0 0
183 0 0 0
197 0 0 0
63 0 0 0
65 0 0 0
67 0 0 0
90 0 0 0
175 0 0 0
194 0 0 0
196 0 0 0
198 0 0 0
24 0 0 0
41 0 0 0
46 0 0 0
62 0 0 0
95 0 0 0
99 0 0 0
104 0 0 0
193 0 0 0
9 0 0 0
39 0 0 0
44 0 0 0
92 0 0 0
94 0 0 0
97 0 0 0
102 0 0 0
178 0 0 0
89 0 0 0
91 0 0 0
93 0 0 0
114 0 0 0
115 0 0 0
116 0 0 0
118 0 0 0
134 0 0 0
135 0 0 0
136 0 0 0
138 0 0 0
174 0 0 0
176 0 0 0
180 0 0 0
222 0 0 0
224 0 0 0
23 0 0 0
43 0 0 0
47 0 0 0
83 0 0 0
86 0 0 0
87 0 0 0
88 0 0 0
101 0 0 0
105 0 0 0
113 0 0 0
133 0 0 0
147 0 0 0
150 0 0 0
151 0 0 0
173 0 0 0
217 0 0 0
15 0 0 0
42 0 0 0
45 0 0 0
56 0 0 0
60 0 0 0
82 0 0 0
84 0 0 0
85 0 0 0
100 0 0 0
103 0 0 0
117 0 0 0
137 0 0 0
146 0 0 0
148 0 0 0
149 0 0 0
226 0 0 0
2 0 0 0
4 0 0 0
13 0 0 0
17 0 0 0
22 0 0 0
30 0 0 0
55 0 0 0
57 0 0 0
139 0 0 0
140 0 0 0
141 0 0 0
143 0 0 0
220 0 0 0
223 0 0 0
225 0 0 0
229 0 0 0
8 0 0 0
10 0 0 0
27 0 0 0
59 0 0 0
145 0 0 0
161 0 0 0
170 0 0 0
215 0 0 0
216 0 0 0
218 0 0 0
219 0 0 0
221 0 0 0
235 0 0 0
238 0 0 0
239 0 0 0
240 0 0 0
6 0 0 0
18 0 0 0
26 0 0 0
29 0 0 0
37 0 0 0
58 0 0 0
61 0 0 0
142 0 0 0
144 0 0 0
167 0 0 0
212 0 0 0
214 0 0 0
232 0 0 0
234 0 0 0
236 0 0 0
237 0 0 0
