LAMMPS data file via write_data, version 29 Aug 2024, timestep = 29, units = metal

256 atoms
2 atom types

0 14.06520962 xlo xhi
0 25.96401269 ylo yhi
0 8.12055266 zlo zhi

Masses

1 55.8
2 1

Atoms # atomic

14 1 1.057837382915 0.882609793183 6.031986631378 0 0 0
20 1 2.25573232562 1.447644730203 4.014404140079 0 0 0
119 1 2.244360603642 3.952166145731 8.064109215832 0 0 0
162 1 4.60370373332 3.201606388904 8.068442342731 0 0 0
164 1 3.418738515862 2.324412972245 1.977215467643 0 0 0
165 1 1.074861068727 3.19086264902 1.957023713454 0 0 0
171 1 4.591949718945 0.910111628979 4.018430797321 0 0 0
207 1 4.594340382624 3.209464162834 4.011853880516 0 0 0
209 1 3.426008119455 2.326209894442 6.036804230449 0 0 0
210 1 1.081883405934 3.179405063333 6.024229960683 0 0 0
211 1 2.253355164542 3.953160954879 4.005300432108 0 0 0
227 1 4.593113052432 0.910667836943 8.072870642508 0 0 0
230 1 1.069909552332 0.885056909312 1.980914216969 0 0 0
231 1 2.245764874171 1.436182171713 8.062433620996 0 0 0
16 1 8.109115727815 3.202888874678 6.027256896687 0 0 0
21 1 9.274888966746 3.965174251251 4.007438898446 0 0 0
25 1 6.930309524998 2.323694650918 4.010853915662 0 0 0
124 1 8.122515793672 3.208139656878 1.966794037592 0 0 0
125 1 9.297242101135 3.958866499871 8.056910427104 0 0 0
159 1 8.11083379317 0.898923817829 6.045176357831 0 0 0
160 1 9.274785306151 1.454175263136 4.000623562215 0 0 0
163 1 5.759295448311 3.956795327614 1.977751830146 0 0 0
168 1 8.0965370702 0.910650183494 1.979660403638 0 0 0
169 1 9.278640861412 1.456335448559 8.081283859885 0 0 0
172 1 5.742404960035 1.435417106043 6.045955118831 0 0 0
206 1 6.93382892175 2.31972088441 8.074350450819 0 0 0
208 1 5.771856665066 3.95392726375 6.049292584768 0 0 0
228 1 5.752460178392 1.422503732412 1.988217192387 0 0 0
1 1 11.630877262625 3.217544718318 3.977814716315 0 0 0
7 1 12.794040842563 3.956175965058 6.021759444947 0 0 0
11 1 10.452361787691 2.343884726503 6.028276756895 0 0 0
33 1 11.607959972679 0.912363562609 4.014394639032 0 0 0
36 1 12.802098379198 1.473576403598 6.01991250645 0 0 0
120 1 13.966959911241 2.329760724094 8.068561877266 0 0 0
121 1 11.629189718775 3.20945521179 8.058433193139 0 0 0
122 1 12.801934519506 3.956410929978 1.96886697107 0 0 0
123 1 10.462057921247 2.332371196787 1.958851649858 0 0 0
166 1 12.796014894733 1.441792984817 1.969021342776 0 0 0
213 1 13.964454616104 2.329442216092 3.985067750334 0 0 0
233 1 11.607715519335 0.915017298683 8.049571315227 0 0 0
12 1 3.4208021377249307 4.852882679815436 1.9727376069994187 0 0 0
19 1 1.0771144110776558 5.679373639080954 1.9697873035033058 0 0 0
28 1 2.2468234414863706 6.4969939349586 8.06588964894895 0 0 0
31 1 4.595103553628732 5.682358757241242 8.067624105170548 0 0 0
72 1 4.595432212010747 5.6801993729798586 4.003093086695786 0 0 0
74 1 3.424701304942992 4.847555446175283 6.037636010584717 0 0 0
75 1 1.080030864079054 5.667672045263623 6.030730716648909 0 0 0
76 1 2.2516608002729024 6.492977553393682 3.9999971079296417 0 0 0
106 1 4.593635758127146 8.196042347740718 3.9976614718837147 0 0 0
108 1 3.4274400836402448 7.32613993201549 6.035964544433178 0 0 0
109 1 1.0915681363272043 8.17537138555091 6.0311920298141475 0 0 0
201 1 4.582783226512146 8.208352872423358 8.071565351599629 0 0 0
203 1 3.4169620905028397 7.3455062176172286 1.9709183184412067 0 0 0
204 1 1.0752869326580676 8.203822495787012 1.9744338514960014 0 0 0
5 1 5.763830217074952 6.510257152538809 1.973315583420166 0 0 0
69 1 8.11131336069644 5.690478329500267 1.9737230710876543 0 0 0
70 1 9.282829764950968 6.510227435159996 8.061921364020067 0 0 0
71 1 6.943512119975636 4.857185576861192 8.068934905722005 0 0 0
73 1 5.768218656797676 6.497583114195115 6.034455846594854 0 0 0
81 1 8.114893988076451 5.682162553402604 6.030593544901511 0 0 0
130 1 8.103782633182865 8.22209361747381 1.9822588389986957 0 0 0
132 1 6.931374972113282 7.348574839974187 8.072701464253974 0 0 0
188 1 8.148474489843984 8.174637524901394 6.006968917418287 0 0 0
190 1 6.943430436830042 7.344059449616997 3.9972253109957734 0 0 0
199 1 9.287989006547399 6.521947179913019 3.9991393759446776 0 0 0
200 1 6.936854938343566 4.854461106161187 4.0028609830378 0 0 0
32 1 13.970898700442387 4.853706396884757 8.057607320928092 0 0 0
35 1 11.627348132137042 5.685469889051029 8.059831225917739 0 0 0
38 1 12.79705801841813 6.500429967523637 1.9684981792469989 0 0 0
68 1 10.453660573214036 4.863882121630179 1.970656399654285 0 0 0
77 1 13.973555085630176 4.852310303439096 3.9968496201102504 0 0 0
78 1 11.627898911766673 5.690559786958946 3.996166187447375 0 0 0
79 1 12.80347879164293 6.492803675902652 6.029545434259565 0 0 0
80 1 10.4570371988283 4.861781715568572 6.025932564092459 0 0 0
111 1 13.976358939113641 7.338571808706834 3.9975915128314163 0 0 0
112 1 11.630534795503008 8.216018615814752 3.9947687085537966 0 0 0
126 1 13.969395705765022 7.357656274517408 8.064278426027542 0 0 0
127 1 11.623791925180086 8.194465786285647 8.063991592029218 0 0 0
129 1 10.452159171241922 7.367582581565956 1.9720276317271785 0 0 0
187 1 10.465680229319226 7.363420811729806 6.027001953145231 0 0 0
51 1 4.588415290732695 10.758642764412313 3.9678601142086802 0 0 0
53 1 3.43627195246372 9.843815479626672 6.0477995008152075 0 0 0
54 1 1.1576200107859134 10.660771209375396 6.04672492494088 0 0 0
64 1 3.3548386901149554 12.915645119699903 6.06588957792993 0 0 0
110 1 2.258273728763714 9.009376405649938 3.989873711018817 0 0 0
152 1 3.4156138364172857 9.902025918109125 1.9717550938203128 0 0 0
153 1 1.1060211460786433 10.796624151181994 1.9786870854722787 0 0 0
154 1 2.2012581716524147 11.530910390839855 8.06986347169442 0 0 0
177 1 2.200807423609794 11.558614136975821 4.003853704468754 0 0 0
191 1 4.566439090381299 10.791701357262834 8.076902533188596 0 0 0
195 1 3.314884099276458 12.676064475191051 2.025760616165188 0 0 0
205 1 2.2290498545007096 9.028709474553319 8.076160029993824 0 0 0
243 2 3.4199056731468107 12.750540906073871 7.857535350218438 0 0 0
251 2 0.4156433302376542 11.491452135160394 4.724525105305261 0 0 0
252 2 3.4949573656500217 11.391340410303174 5.197444115320584 0 0 0
3 1 6.936713534090673 9.903059934241588 3.9997840892783154 0 0 0
40 1 6.95612796356125 12.673110805432156 8.01685842412089 0 0 0
48 1 8.093339437187208 10.79924285171412 2.00614313936192 0 0 0
49 1 9.22246874519942 11.55334357462198 8.098565243577402 0 0 0
50 1 6.906778119660654 9.948547605155785 8.117408592731254 0 0 0
52 1 5.749467562572182 11.548148837227291 6.020061695428077 0 0 0
98 1 6.934416781585457 12.793510231182841 3.999455566373481 0 0 0
107 1 5.724898053197221 9.014721924676207 6.020476250969962 0 0 0
131 1 9.221370020983072 9.009160739553394 8.068769490724117 0 0 0
184 1 8.147323053258765 10.916371742326287 6.00117492035532 0 0 0
185 1 9.287100605829973 11.57290011667881 3.978426570706431 0 0 0
189 1 9.31422163215457 9.080891733953356 4.000423616372107 0 0 0
192 1 5.74997808527026 11.514914478578094 1.9845857122362525 0 0 0
202 1 5.751944859875115 9.045449267774675 1.9815168137401646 0 0 0
242 2 8.658823504944419 12.79212134260103 5.084922742332324 0 0 0
247 2 7.270578810510763 9.549523825125918 6.490895989630579 0 0 0
254 2 5.34878985844143 12.832904082815107 4.841996719171428 0 0 0
256 2 6.972726052392225 12.77907570183579 2.1777935335748198 0 0 0
34 1 10.440884480217514 12.879182097805847 2.138029910240621 0 0 0
66 1 13.959116066971566 12.948283022910054 3.9193129658326176 0 0 0
96 1 10.454723200412488 12.867905517230522 5.899718707409914 0 0 0
128 1 12.823962191290398 9.001285073411202 2.0188805853100944 0 0 0
155 1 13.879763952377134 9.9910116272759 8.088862244713027 0 0 0
156 1 11.721607156313219 12.054222795318331 8.004203974481545 0 0 0
157 1 12.85986767133905 11.559869666747286 2.041732308863983 0 0 0
158 1 10.48589177722348 9.996018531713997 1.9124286898440925 0 0 0
179 1 13.983939659671144 9.89126817093086 3.9824618186270513 0 0 0
181 1 11.611920696580722 10.812792975487676 4.003233422241987 0 0 0
182 1 12.919086871569858 11.561806340078157 5.94185848808408 0 0 0
183 1 10.518312970408513 10.026110038926479 6.100742025828067 0 0 0
186 1 12.83651039824478 8.974005604864386 5.977482298348869 0 0 0
197 1 14.048912295507659 13.01762648705035 0.025672618194683958 0 0 1
244 2 12.23313754431758 12.817336966144316 3.135762742012499 0 0 0
245 2 0.2821874301720611 11.524086278433824 7.251400559722315 1 0 0
246 2 10.345192763710005 12.880232637178105 0.40988258170980413 0 0 0
248 2 10.40000599452083 10.250659722232868 8.067456164207691 0 0 -1
253 2 12.247516305065739 10.286556329212452 6.938355005840194 0 0 0
255 2 12.272563942698028 10.29174888044404 1.0079088979281765 0 0 0
63 1 2.21308252040779 14.049123681221634 4.002920114980105 0 0 0
65 1 4.569371123250086 14.784746280621572 4.0041641345167 0 0 0
67 1 1.0546138670321459 14.777946175694817 6.0349900460251344 0 0 0
89 1 2.226253043672832 16.531227292536048 8.057598630134114 0 0 0
90 1 3.3853163943074427 15.691814316798782 1.9894531744986754 0 0 0
174 1 2.228254871669619 16.527140144449874 3.9941945533740206 0 0 0
175 1 3.3972263353450973 15.680047096895516 6.0159907884243395 0 0 0
194 1 2.2389327296960784 14.056651947926813 8.071956754291618 0 0 0
196 1 4.549771357647412 14.847077728817798 8.018929571497626 0 0 0
198 1 1.0477285540488082 14.777278857129609 1.9700952577143 0 0 0
250 2 4.0671181231079165 14.167950685406131 1.4694359559170063 0 0 0
24 1 9.24319446985056 14.059142028485311 8.026925087407864 0 0 0
41 1 8.112170826722016 14.780229892880458 1.9725493013075484 0 0 0
43 1 9.261238167094326 16.524827340776195 3.982137409202739 0 0 0
46 1 6.914538400842262 15.673632026275662 3.9905155618644783 0 0 0
62 1 5.748816937941753 14.052625643111384 6.02082970568891 0 0 0
88 1 5.751406411236378 16.547357135740413 1.9685498710903004 0 0 0
95 1 9.249496682042553 14.051719168030335 3.999575910082538 0 0 0
99 1 8.081356014173291 14.780215031731071 6.012858377118393 0 0 0
101 1 9.255564035244516 16.52323867435498 8.059724239108679 0 0 0
104 1 6.943267174870887 15.685283507341651 8.041153176308324 0 0 0
173 1 5.748287555260144 16.535558774635902 6.021836847452993 0 0 0
193 1 5.765577585854535 14.041090627007991 1.9831698212047895 0 0 0
249 2 6.103192181078943 14.15252105139751 0.2005616714151091 0 0 0
9 1 12.789049615397484 14.0125065628517 1.9624503772248567 0 0 0
39 1 11.622187957303312 14.687624392915074 8.110416478923481 0 0 0
42 1 12.826407794310922 16.522919367297447 5.98605995271218 0 0 0
44 1 10.39090381024515 15.631319700740153 5.973640222397022 0 0 0
92 1 13.965682121557354 15.64546240912183 8.071324947985588 0 0 0
94 1 12.76603151925103 14.009334586272573 6.0394836707350485 0 0 0
97 1 11.60978290692408 14.766034099563615 3.98285189416064 0 0 0
100 1 12.783156694945298 16.505146756052792 1.9708903416303647 0 0 0
102 1 10.432136679520333 15.649577750608056 1.9767199249468757 0 0 0
178 1 13.958714283631721 15.653097999114868 3.992259348270901 0 0 0
241 2 11.629508629717579 16.020330869327697 7.073493335112762 0 0 0
91 1 4.572014780529621 17.368781235854506 8.05183110052239 0 0 0
93 1 1.0603191879440808 17.34932699108183 1.9660624686307206 0 0 0
114 1 2.2348093709911168 19.04107548693245 8.054084705817148 0 0 0
115 1 3.402373628246324 18.219004245408076 1.964762984140875 0 0 0
116 1 4.580662566747149 19.89656066950028 8.056790221195902 0 0 0
118 1 1.062043891519545 19.880542633285643 1.9639037845697367 0 0 0
134 1 2.2335724868245586 19.039779867658055 3.99409851269226 0 0 0
135 1 3.4059201993041697 18.218686058903685 6.022454329608028 0 0 0
136 1 4.579395550934761 19.892011753672616 3.9958054459798875 0 0 0
138 1 1.0644763464701161 19.88430766875129 6.02226815476414 0 0 0
176 1 4.574633785609263 17.355587362993898 3.9955874709362695 0 0 0
180 1 1.0677161021405104 17.356833504097388 6.021810692735416 0 0 0
220 1 2.23650201619089 21.5456798882588 8.055372011431809 0 0 0
222 1 3.4079265309099527 20.716702888529536 1.9662027218939324 0 0 0
223 1 2.234748248315944 21.54269499927331 3.9912104356073943 0 0 0
224 1 3.409438192836275 20.71564097540052 6.024743290763548 0 0 0
23 1 6.92358584290005 20.723966788392357 3.9982739655366037 0 0 0
47 1 8.093571144167472 17.353164486997322 6.021308595714775 0 0 0
83 1 9.265404119381202 19.042213084535263 3.995050883893968 0 0 0
86 1 6.9221874272819095 18.222256795463867 3.9948019735901377 0 0 0
87 1 8.095573088431445 19.891490931769926 6.028122023360387 0 0 0
105 1 8.091328824881456 17.356692159048333 1.9615063638881252 0 0 0
113 1 5.751224713143349 19.050281758223647 1.965407009627863 0 0 0
133 1 5.750780026425924 19.047713585518622 6.02559744369128 0 0 0
147 1 9.268783676705937 19.043278708848035 8.056998001666534 0 0 0
150 1 6.923012333983714 18.222343195407788 8.053768479303328 0 0 0
151 1 8.096162206712409 19.894416063782582 1.9665894349072317 0 0 0
217 1 6.926292061504801 20.723285873009228 8.058457353125414 0 0 0
15 1 10.440170861224496 20.71817811742848 6.026877838981453 0 0 0
45 1 11.61368314946851 17.34653436359418 3.9860901664136312 0 0 0
56 1 13.958080504144702 20.709806923404958 8.053197814606616 0 0 0
58 1 12.78403311054897 21.538562021603912 1.9617884968523498 0 0 0
60 1 10.43868785572412 20.717542940191805 1.967948582360689 0 0 0
82 1 12.787697157789026 19.03708020479833 6.023147709158476 0 0 0
84 1 10.436582391993381 18.21756301236616 6.017420324605284 0 0 0
85 1 11.611849756774772 19.882826510400196 3.994596811476489 0 0 0
103 1 11.608886852713518 17.383588196327022 8.090897855153381 0 0 0
117 1 13.960197120985649 18.202996269057124 8.057425156122045 0 0 0
137 1 13.955450476538678 18.201936442120154 3.991574344944704 0 0 0
146 1 12.784306381701398 19.02806400451963 1.9646886139175044 0 0 0
148 1 10.436336061582608 18.21247046850241 1.9709010322121039 0 0 0
149 1 11.612484301575297 19.889832674987222 8.057371713450891 0 0 0
226 1 13.955257679552382 20.70545739454387 3.993304753569342 0 0 0
2 1 1.076727381391 22.386469888427 6.014516399208 0 0 0
4 1 3.40994705659 25.768465186677 6.018819642473 0 0 0
13 1 2.231707400416 24.119436872092 8.061255166394 0 0 0
17 1 3.400807342726 23.260067222931 1.978711111032 0 0 0
22 1 4.573483505235 24.717418863688 8.061385988497 0 0 0
30 1 1.048241393652 24.692818409533 1.955998087653 0 0 0
55 1 4.583388647805 22.408692099769 8.068630089909 0 0 0
57 1 1.05661244381 22.386834146213 1.962799781355 0 0 0
139 1 2.215835795925 24.136208145932 4.004391742266 0 0 0
140 1 3.405626364846 23.256368701043 6.018140358243 0 0 0
141 1 4.577589421227 24.701967620282 3.996477126821 0 0 0
143 1 1.058017558251 24.687563649091 6.048239430294 0 0 0
225 1 4.575138277146 22.408764702686 3.997607182929 0 0 0
229 1 3.394482639917 25.767230937087 1.985170036207 0 0 0
8 1 5.764516735426 24.155935750881 1.957580620955 0 0 0
10 1 9.26825723487989 21.554547731271338 3.9972658121309466 0 0 0
27 1 8.098971336029 22.403884394275 6.036138669953 0 0 0
59 1 9.271096175773934 21.559243970256254 8.058698724087835 0 0 0
145 1 9.278891784752 24.140725439758 4.00373706331 0 0 0
161 1 6.939146555551 25.777497536567 4.006002941119 0 0 0
170 1 6.937718936774 25.780692313558 8.054253869507 0 0 0
215 1 6.92729760101 23.269423550906 3.993871809911 0 0 0
216 1 8.100270680094 24.700166222563 6.027167976635 0 0 0
218 1 5.753221671496633 21.558052268104763 1.970600669364687 0 0 0
219 1 8.100162096675 22.413224312002 1.958446921513 0 0 0
221 1 5.7521197955411845 21.559672642273018 6.029626428399339 0 0 0
235 1 9.283640762128 24.186751710928 8.076086706183 0 0 0
238 1 6.935354434385 23.272930868536 8.07316631183 0 0 0
239 1 8.098209564276 24.714094047911 1.995625734989 0 0 0
240 1 5.744090534756 24.155448167592 6.033969020693 0 0 0
6 1 12.786812282811724 21.548942020992726 6.0262398542891225 0 0 0
18 1 11.617012904198 22.389855621035 3.995117746306 0 0 0
26 1 13.958898717652 23.269825850631 8.04507131097 0 0 0
29 1 13.950212044191 25.779561746901 3.992627010394 0 0 0
37 1 10.444634783482 25.796639096737 6.03736714716 0 0 0
61 1 11.60650605196 22.40103274066 8.055540246254 0 0 0
142 1 13.957838200847 23.259328015833 3.993168326434 0 0 0
144 1 12.776089696829 24.14713687407 6.016990569192 0 0 0
167 1 10.442632460241 25.807563597992 1.981290523379 0 0 0
212 1 10.437962810647 23.28024660699 6.034886237116 0 0 0
214 1 11.622113933771 24.699369330956 3.997829767278 0 0 0
232 1 13.943125850932 25.797755988187 8.066013891458 0 0 0
234 1 12.783040582771 24.117976359987 1.975268646348 0 0 0
236 1 10.450743022716 23.277436476275 1.967506534883 0 0 0
237 1 11.635301333659 24.710247087868 8.073659229376 0 0 0

Velocities

14 0 0 0
20 0 0 0
119 0 0 0
162 0 0 0
164 0 0 0
165 0 0 0
171 0 0 0
207 0 0 0
209 0 0 0
210 0 0 0
211 0 0 0
227 0 0 0
230 0 0 0
231 0 0 0
16 0 0 0
21 0 0 0
25 0 0 0
124 0 0 0
125 0 0 0
159 0 0 0
160 0 0 0
163 0 0 0
168 0 0 0
169 0 0 0
172 0 0 0
206 0 0 0
208 0 0 0
228 0 0 0
1 0 0 0
7 0 0 0
11 0 0 0
33 0 0 0
36 0 0 0
120 0 0 0
121 0 0 0
122 0 0 0
123 0 0 0
166 0 0 0
213 0 0 0
233 0 0 0
12 0 0 0
19 0 0 0
28 0 0 0
31 0 0 0
72 0 0 0
74 0 0 0
75 0 0 0
76 0 0 0
106 0 0 0
108 0 0 0
109 0 0 0
201 0 0 0
203 0 0 0
204 0 0 0
5 0 0 0
69 0 0 0
70 0 0 0
71 0 0 0
73 0 0 0
81 0 0 0
130 0 0 0
132 0 0 0
188 0 0 0
190 0 0 0
199 0 0 0
200 0 0 0
32 0 0 0
35 0 0 0
38 0 0 0
68 0 0 0
77 0 0 0
78 0 0 0
79 0 0 0
80 0 0 0
111 0 0 0
112 0 0 0
126 0 0 0
127 0 0 0
129 0 0 0
187 0 0 0
51 0 0 0
53 0 0 0
54 0 0 0
64 0 0 0
110 0 0 0
152 0 0 0
153 0 0 0
154 0 0 0
177 0 0 0
191 0 0 0
195 0 0 0
205 0 0 0
243 0 0 0
251 0 0 0
252 0 0 0
3 0 0 0
40 0 0 0
48 0 0 0
49 0 0 0
50 0 0 0
52 0 0 0
98 0 0 0
107 0 0 0
131 0 0 0
184 0 0 0
185 0 0 0
189 0 0 0
192 0 0 0
202 0 0 0
242 0 0 0
247 0 0 0
254 0 0 0
256 0 0 0
34 0 0 0
66 0 0 0
96 0 0 0
128 0 0 0
155 0 0 0
156 0 0 0
157 0 0 0
158 0 0 0
179 0 0 0
181 0 0 0
182 0 0 0
183 0 0 0
186 0 0 0
197 0 0 0
244 0 0 0
245 0 0 0
246 0 0 0
248 0 0 0
253 0 0 0
255 0 0 0
63 0 0 0
65 0 0 0
67 0 0 0
89 0 0 0
90 0 0 0
174 0 0 0
175 0 0 0
194 0 0 0
196 0 0 0
198 0 0 0
250 0 0 0
24 0 0 0
41 0 0 0
43 0 0 0
46 0 0 0
62 0 0 0
88 0 0 0
95 0 0 0
99 0 0 0
101 0 0 0
104 0 0 0
173 0 0 0
193 0 0 0
249 0 0 0
9 0 0 0
39 0 0 0
42 0 0 0
44 0 0 0
92 0 0 0
94 0 0 0
97 0 0 0
100 0 0 0
102 0 0 0
178 0 0 0
241 0 0 0
91 0 0 0
93 0 0 0
114 0 0 0
115 0 0 0
116 0 0 0
118 0 0 0
134 0 0 0
135 0 0 0
136 0 0 0
138 0 0 0
176 0 0 0
180 0 0 0
220 0 0 0
222 0 0 0
223 0 0 0
224 0 0 0
23 0 0 0
47 0 0 0
83 0 0 0
86 0 0 0
87 0 0 0
105 0 0 0
113 0 0 0
133 0 0 0
147 0 0 0
150 0 0 0
151 0 0 0
217 0 0 0
15 0 0 0
45 0 0 0
56 0 0 0
58 0 0 0
60 0 0 0
82 0 0 0
84 0 0 0
85 0 0 0
103 0 0 0
117 0 0 0
137 0 0 0
146 0 0 0
148 0 0 0
149 0 0 0
226 0 0 0
2 0 0 0
4 0 0 0
13 0 0 0
17 0 0 0
22 0 0 0
30 0 0 0
55 0 0 0
57 0 0 0
139 0 0 0
140 0 0 0
141 0 0 0
143 0 0 0
225 0 0 0
229 0 0 0
8 0 0 0
10 0 0 0
27 0 0 0
59 0 0 0
145 0 0 0
161 0 0 0
170 0 0 0
215 0 0 0
216 0 0 0
218 0 0 0
219 0 0 0
221 0 0 0
235 0 0 0
238 0 0 0
239 0 0 0
240 0 0 0
6 0 0 0
18 0 0 0
26 0 0 0
29 0 0 0
37 0 0 0
61 0 0 0
142 0 0 0
144 0 0 0
167 0 0 0
212 0 0 0
214 0 0 0
232 0 0 0
234 0 0 0
236 0 0 0
237 0 0 0
