LAMMPS data file via write_data, version 29 Aug 2024, timestep = 6, units = metal

288 atoms
1 atom types

0 11.317147 xlo xhi
0 29.463582 ylo yhi
0 11.317147 zlo zhi

Masses

1 55.8

Atoms # atomic

1 1 0 0 0 0 0 0
2 1 1.414643375 1.414643557616 1.414643375 0 0 0
3 1 0 0 2.82928675 0 0 0
4 1 1.414643375 1.414643557616 4.243930125 0 0 0
9 1 0 2.82928660596 0 0 0 0
10 1 1.4146433750000031 4.250351532418166 1.4146433750000058 0 0 0
11 1 0 2.82928660596 2.82928675 0 0 0
12 1 1.414643375000004 4.250351532418175 4.243930124999991 0 0 0
73 1 2.82928675 0 0 0 0 0
74 1 4.243930125 1.414643557616 1.414643375 0 0 0
75 1 2.82928675 0 2.82928675 0 0 0
76 1 4.243930125 1.414643557616 4.243930125 0 0 0
81 1 2.82928675 2.82928660596 0 0 0 0
82 1 4.243930124999999 4.250351532418165 1.4146433750000038 0 0 0
83 1 2.82928675 2.82928660596 2.82928675 0 0 0
84 1 4.243930124999995 4.2503515324181755 4.243930124999998 0 0 0
145 1 5.6585735 0 0 0 0 0
146 1 7.073216875 1.414643557616 1.414643375 0 0 0
147 1 5.6585735 0 2.82928675 0 0 0
148 1 7.073216875 1.414643557616 4.243930125 0 0 0
153 1 5.6585735 2.82928660596 0 0 0 0
154 1 7.073216875000001 4.250351532418165 1.414643375000001 0 0 0
155 1 5.6585735 2.82928660596 2.82928675 0 0 0
156 1 7.073216874999998 4.2503515324181755 4.243930124999996 0 0 0
217 1 8.48786025 0 0 0 0 0
218 1 9.902503625 1.414643557616 1.414643375 0 0 0
219 1 8.48786025 0 2.82928675 0 0 0
220 1 9.902503625 1.414643557616 4.243930125 0 0 0
225 1 8.48786025 2.82928660596 0 0 0 0
226 1 9.902503624999998 4.250351532418173 1.4146433750000034 0 0 0
227 1 8.48786025 2.82928660596 2.82928675 0 0 0
228 1 9.902503624999998 4.250351532418176 4.243930124999996 0 0 0
17 1 11.317146999999997 5.6724125110924595 11.317146999999995 -1 0 -1
18 1 1.4146433750000014 7.098324806191144 1.4146433750000005 0 0 0
19 1 11.317146999999999 5.672412511092454 2.829286750000006 -1 0 0
20 1 1.4146433749999963 7.09832480619114 4.243930124999998 0 0 0
25 1 11.317146999999991 8.523763332100446 3.891865655280016e-15 -1 0 0
27 1 11.317146999999999 8.52376333210045 2.8292867500000014 -1 0 0
89 1 2.82928675 5.67241251109246 11.317146999999997 0 0 -1
90 1 4.2439301249999986 7.098324806191144 1.4146433749999996 0 0 0
91 1 2.8292867499999987 5.672412511092447 2.8292867500000063 0 0 0
92 1 4.243930125000003 7.098324806191137 4.243930125000002 0 0 0
97 1 2.8292867500000045 8.523763332100447 9.301302851093629e-15 0 0 0
99 1 2.829286750000002 8.523763332100451 2.8292867499999947 0 0 0
161 1 5.658573499999996 5.6724125110924595 11.317146999999993 0 0 -1
162 1 7.073216875000003 7.098324806191147 1.4146433749999978 0 0 0
163 1 5.658573500000001 5.672412511092456 2.8292867500000103 0 0 0
164 1 7.073216874999999 7.0983248061911315 4.2439301249999986 0 0 0
169 1 5.6585734999999975 8.523763332100447 3.754202219598595e-15 0 0 0
171 1 5.658573500000002 8.52376333210045 2.8292867499999974 0 0 0
233 1 8.487860250000002 5.672412511092457 11.317146999999997 0 0 -1
234 1 9.902503625 7.098324806191144 1.4146433749999932 0 0 0
235 1 8.487860250000008 5.672412511092449 2.829286750000007 0 0 0
236 1 9.902503625000001 7.098324806191138 4.243930125000001 0 0 0
241 1 8.487860250000004 8.523763332100447 3.446835434006177e-15 0 0 0
243 1 8.487860249999999 8.523763332100451 2.829286749999997 0 0 0
26 1 1.4146433750000038 9.940598776145125 1.414643375000005 0 0 0
28 1 1.4146433749999994 9.940598776145126 4.243930124999997 0 0 0
33 1 11.317146999999999 11.372878600721839 11.317146999999995 -1 0 -1
34 1 1.414643375000003 12.775314547682422 1.4146433750000014 0 0 0
35 1 1.8499133364085324e-15 11.372878600721842 2.829286750000003 0 0 0
36 1 1.4146433750000031 12.775314547682424 4.243930125000002 0 0 0
98 1 4.243930124999996 9.940598776145126 1.4146433749999983 0 0 0
100 1 4.2439301249999986 9.940598776145126 4.243930124999999 0 0 0
105 1 2.8292867500000014 11.372878600721842 11.317146999999999 0 0 -1
106 1 4.243930125000008 12.77531454768242 1.4146433749999987 0 0 0
107 1 2.829286749999997 11.372878600721833 2.8292867500000014 0 0 0
108 1 4.243930125000004 12.775314547682418 4.243930125000003 0 0 0
170 1 7.073216875000005 9.940598776145128 1.4146433749999983 0 0 0
172 1 7.073216874999997 9.940598776145125 4.243930124999998 0 0 0
177 1 5.658573499999997 11.372878600721835 11.317146999999999 0 0 -1
178 1 7.073216874999997 12.775314547682422 1.414643375 0 0 0
179 1 5.6585734999999975 11.372878600721835 2.829286750000004 0 0 0
180 1 7.073216875000004 12.775314547682413 4.2439301249999986 0 0 0
242 1 9.902503624999998 9.940598776145121 1.4146433749999991 0 0 0
244 1 9.902503625 9.940598776145123 4.243930125000003 0 0 0
249 1 8.48786025 11.372878600721833 11.317146999999995 0 0 -1
250 1 9.902503625 12.77531454768242 1.414643374999997 0 0 0
251 1 8.48786025 11.372878600721837 2.829286750000003 0 0 0
252 1 9.902503624999994 12.775314547682418 4.243930125000004 0 0 0
41 1 8.410764341319305e-16 18.102419101008508 8.877426962432067e-16 0 0 0
42 1 1.4146433749999976 19.50534236455043 1.4146433749999991 0 0 0
43 1 5.039667391948169e-15 18.102419101008504 2.829286750000003 0 0 0
44 1 1.4146433750000056 19.505342364550437 4.243930125 0 0 0
113 1 2.8292867499999947 18.102419101008504 4.329798400253952e-15 0 0 0
114 1 4.243930124999999 19.505342364550433 1.4146433749999985 0 0 0
115 1 2.8292867499999974 18.102419101008504 2.82928675 0 0 0
116 1 4.243930124999997 19.505342364550437 4.243930125000002 0 0 0
185 1 5.658573499999999 18.10241910100851 1.1024980125888431e-15 0 0 0
186 1 7.073216875000003 19.505342364550437 1.4146433749999998 0 0 0
187 1 5.658573499999998 18.10241910100851 2.829286749999995 0 0 0
188 1 7.0732168749999955 19.505342364550437 4.243930124999994 0 0 0
257 1 8.48786025 18.102419101008508 1.7809396331520974e-15 0 0 0
258 1 9.902503625000001 19.505342364550433 1.414643374999996 0 0 0
259 1 8.487860249999994 18.102419101008504 2.8292867500000005 0 0 0
260 1 9.902503625000003 19.505342364550437 4.2439301249999986 0 0 0
49 1 11.317146999999995 20.93853725963923 1.0479761519732417e-16 -1 0 0
50 1 1.4146433749999967 22.35663188890499 1.414643375000006 0 0 0
51 1 11.317146999999999 20.938537259639237 2.829286750000003 -1 0 0
52 1 1.4146433749999952 22.356631888904985 4.243930124999998 0 0 0
57 1 11.317146999999999 23.78046768642988 3.275957873753954e-15 -1 0 0
59 1 2.98252309105747e-15 23.780467686429873 2.8292867499999947 0 0 0
121 1 2.8292867499999983 20.93853725963923 11.317146999999993 0 0 -1
122 1 4.243930125000001 22.356631888904992 1.414643375000002 0 0 0
123 1 2.8292867500000005 20.938537259639237 2.829286750000005 0 0 0
124 1 4.243930125 22.356631888904985 4.243930124999998 0 0 0
129 1 2.8292867499999987 23.780467686429873 7.806031730432012e-15 0 0 0
131 1 2.82928675 23.780467686429876 2.8292867499999907 0 0 0
193 1 5.6585735 20.938537259639226 11.317146999999997 0 0 -1
194 1 7.073216875000004 22.35663188890499 1.4146433750000027 0 0 0
195 1 5.6585735 20.938537259639233 2.8292867500000045 0 0 0
196 1 7.073216874999998 22.356631888904985 4.243930124999997 0 0 0
201 1 5.6585735 23.78046768642988 5.3755607242775596e-15 0 0 0
203 1 5.6585735 23.780467686429876 2.829286749999999 0 0 0
265 1 8.487860250000002 20.93853725963923 2.8231644929995772e-15 0 0 0
266 1 9.902503624999994 22.356631888904985 1.414643374999998 0 0 0
267 1 8.487860249999999 20.938537259639233 2.8292867500000005 0 0 0
268 1 9.902503625000001 22.35663188890498 4.243930124999997 0 0 0
273 1 8.48786025 23.780467686429876 8.09692177908041e-15 0 0 0
275 1 8.487860249999997 23.780467686429876 2.829286749999994 0 0 0
58 1 1.4146433749999985 25.19988693391042 1.4146433750000016 0 0 0
60 1 1.4146433749999996 25.199886933910424 4.243930125000003 0 0 0
65 1 0 26.63429539404 0 0 0 0
66 1 1.414643375 28.048937423841 1.414643375 0 0 0
67 1 0 26.63429539404 2.82928675 0 0 0
68 1 1.414643375 28.048937423841 4.243930125 0 0 0
130 1 4.243930125000003 25.199886933910424 1.4146433750000027 0 0 0
132 1 4.243930125000003 25.199886933910424 4.243930125000002 0 0 0
137 1 2.82928675 26.63429539404 0 0 0 0
138 1 4.243930125 28.048937423841 1.414643375 0 0 0
139 1 2.82928675 26.63429539404 2.82928675 0 0 0
140 1 4.243930125 28.048937423841 4.243930125 0 0 0
202 1 7.073216875000003 25.19988693391042 1.414643374999996 0 0 0
204 1 7.073216875 25.199886933910427 4.2439301249999986 0 0 0
209 1 5.6585735 26.63429539404 0 0 0 0
210 1 7.073216875 28.048937423841 1.414643375 0 0 0
211 1 5.6585735 26.63429539404 2.82928675 0 0 0
212 1 7.073216875 28.048937423841 4.243930125 0 0 0
274 1 9.902503624999996 25.199886933910417 1.4146433749999947 0 0 0
276 1 9.902503625000001 25.199886933910427 4.243930124999999 0 0 0
281 1 8.48786025 26.63429539404 0 0 0 0
282 1 9.902503625 28.048937423841 1.414643375 0 0 0
283 1 8.48786025 26.63429539404 2.82928675 0 0 0
284 1 9.902503625 28.048937423841 4.243930125 0 0 0
5 1 0 0 5.6585735 0 0 0
6 1 1.414643375 1.414643557616 7.073216875 0 0 0
7 1 0 0 8.48786025 0 0 0
8 1 1.414643375 1.414643557616 9.902503625 0 0 0
13 1 0 2.82928660596 5.6585735 0 0 0
14 1 1.4146433750000091 4.250351532418166 7.073216875000009 0 0 0
15 1 0 2.82928660596 8.48786025 0 0 0
16 1 1.414643374999999 4.250351532418173 9.902503624999994 0 0 0
77 1 2.82928675 0 5.6585735 0 0 0
78 1 4.243930125 1.414643557616 7.073216875 0 0 0
79 1 2.82928675 0 8.48786025 0 0 0
80 1 4.243930125 1.414643557616 9.902503625 0 0 0
85 1 2.82928675 2.82928660596 5.6585735 0 0 0
86 1 4.243930124999996 4.250351532418164 7.073216875000005 0 0 0
87 1 2.82928675 2.82928660596 8.48786025 0 0 0
88 1 4.243930124999999 4.250351532418171 9.902503624999996 0 0 0
149 1 5.6585735 0 5.6585735 0 0 0
150 1 7.073216875 1.414643557616 7.073216875 0 0 0
151 1 5.6585735 0 8.48786025 0 0 0
152 1 7.073216875 1.414643557616 9.902503625 0 0 0
157 1 5.6585735 2.82928660596 5.6585735 0 0 0
158 1 7.073216875000001 4.2503515324181675 7.073216875000005 0 0 0
159 1 5.6585735 2.82928660596 8.48786025 0 0 0
160 1 7.073216875000002 4.250351532418171 9.902503624999998 0 0 0
221 1 8.48786025 0 5.6585735 0 0 0
222 1 9.902503625 1.414643557616 7.073216875 0 0 0
223 1 8.48786025 0 8.48786025 0 0 0
224 1 9.902503625 1.414643557616 9.902503625 0 0 0
229 1 8.48786025 2.82928660596 5.6585735 0 0 0
230 1 9.902503625000001 4.250351532418168 7.073216875000002 0 0 0
231 1 8.48786025 2.82928660596 8.48786025 0 0 0
232 1 9.902503625 4.2503515324181755 9.902503625000001 0 0 0
21 1 11.317146999999995 5.672412511092459 5.658573499999991 -1 0 0
22 1 1.4146433750000014 7.0983248061911475 7.073216875000004 0 0 0
23 1 11.317146999999999 5.672412511092452 8.487860250000004 -1 0 0
24 1 1.4146433749999974 7.098324806191131 9.902503625000001 0 0 0
29 1 11.317146999999993 8.523763332100447 5.658573500000001 -1 0 0
31 1 11.317146999999999 8.523763332100454 8.48786024999999 -1 0 0
93 1 2.8292867500000036 5.672412511092454 5.6585734999999975 0 0 0
94 1 4.243930125000001 7.098324806191143 7.073216874999997 0 0 0
95 1 2.8292867499999947 5.672412511092451 8.487860249999999 0 0 0
96 1 4.243930125000005 7.0983248061911315 9.902503625000008 0 0 0
101 1 2.8292867499999974 8.52376333210045 5.658573500000005 0 0 0
103 1 2.829286749999995 8.523763332100451 8.487860249999992 0 0 0
165 1 5.658573500000001 5.672412511092456 5.658573499999992 0 0 0
166 1 7.073216874999996 7.098324806191142 7.073216875000001 0 0 0
167 1 5.658573499999999 5.672412511092459 8.487860250000006 0 0 0
168 1 7.073216875000002 7.098324806191138 9.902503625000007 0 0 0
173 1 5.658573499999999 8.523763332100446 5.658573500000005 0 0 0
175 1 5.658573499999999 8.523763332100451 8.487860249999995 0 0 0
237 1 8.487860250000002 5.672412511092455 5.658573499999995 0 0 0
238 1 9.902503625000003 7.098324806191147 7.073216874999992 0 0 0
239 1 8.487860250000002 5.672412511092451 8.487860250000006 0 0 0
240 1 9.902503624999998 7.098324806191138 9.902503625000008 0 0 0
245 1 8.487860250000006 8.52376333210045 5.658573500000002 0 0 0
247 1 8.48786025 8.523763332100454 8.487860249999997 0 0 0
30 1 1.4146433749999996 9.94059877614512 7.073216875000005 0 0 0
32 1 1.414643374999999 9.940598776145132 9.902503624999998 0 0 0
37 1 11.317146999999995 11.372878600721835 5.658573499999996 -1 0 0
38 1 1.4146433749999994 12.775314547682424 7.073216875000002 0 0 0
39 1 0 11.372878600721839 8.487860250000006 0 0 0
40 1 1.4146433750000025 12.775314547682413 9.902503625000001 0 0 0
102 1 4.243930124999998 9.940598776145118 7.073216875000003 0 0 0
104 1 4.243930125000002 9.94059877614513 9.902503625000001 0 0 0
109 1 2.82928675 11.372878600721837 5.6585734999999975 0 0 0
110 1 4.243930125 12.77531454768242 7.0732168749999955 0 0 0
111 1 2.8292867499999996 11.37287860072184 8.487860250000004 0 0 0
112 1 4.243930125000001 12.775314547682418 9.902503625000003 0 0 0
174 1 7.073216874999997 9.94059877614512 7.0732168750000035 0 0 0
176 1 7.0732168750000035 9.940598776145132 9.902503625000001 0 0 0
181 1 5.6585735 11.372878600721835 5.658573499999995 0 0 0
182 1 7.073216874999998 12.775314547682422 7.073216874999998 0 0 0
183 1 5.6585735 11.372878600721839 8.487860250000002 0 0 0
184 1 7.073216874999997 12.775314547682418 9.902503625000001 0 0 0
246 1 9.902503624999998 9.94059877614512 7.073216875000006 0 0 0
248 1 9.902503625 9.940598776145132 9.902503625000003 0 0 0
253 1 8.487860249999999 11.372878600721837 5.658573499999995 0 0 0
254 1 9.902503624999992 12.775314547682418 7.073216874999994 0 0 0
255 1 8.487860249999999 11.372878600721837 8.487860250000004 0 0 0
256 1 9.902503625000005 12.775314547682418 9.902503625 0 0 0
45 1 3.3971509917300763e-15 18.102419101008508 5.658573500000001 0 0 0
46 1 1.4146433750000023 19.50534236455043 7.073216874999998 0 0 0
47 1 2.55772132068468e-15 18.102419101008508 8.487860249999999 0 0 0
48 1 1.4146433750000007 19.50534236455044 9.902503625000001 0 0 0
117 1 2.82928675 18.10241910100851 5.658573499999999 0 0 0
118 1 4.243930124999997 19.505342364550433 7.073216874999995 0 0 0
119 1 2.829286749999996 18.10241910100851 8.487860250000002 0 0 0
120 1 4.243930125000002 19.50534236455044 9.902503625000005 0 0 0
189 1 5.658573499999995 18.10241910100851 5.658573499999992 0 0 0
190 1 7.073216874999997 19.505342364550437 7.073216875000002 0 0 0
191 1 5.658573500000001 18.102419101008508 8.48786025 0 0 0
192 1 7.073216874999996 19.505342364550437 9.902503625000005 0 0 0
261 1 8.487860250000002 18.102419101008504 5.658573499999995 0 0 0
262 1 9.902503625000001 19.505342364550437 7.073216874999996 0 0 0
263 1 8.487860250000002 18.10241910100851 8.487860250000006 0 0 0
264 1 9.902503625000001 19.50534236455044 9.90250362500001 0 0 0
53 1 11.317146999999993 20.938537259639226 5.658573499999998 -1 0 0
54 1 1.4146433750000038 22.35663188890499 7.073216875000006 0 0 0
55 1 5.855970193757563e-16 20.938537259639226 8.487860250000002 0 0 0
56 1 1.4146433750000051 22.35663188890497 9.902503624999994 0 0 0
61 1 1.961009489971623e-15 23.780467686429876 5.658573500000001 0 0 0
63 1 5.345202214961269e-15 23.780467686429873 8.487860249999994 0 0 0
125 1 2.829286750000006 20.938537259639222 5.658573499999999 0 0 0
126 1 4.243930125000004 22.356631888904985 7.073216875000001 0 0 0
127 1 2.8292867499999987 20.938537259639233 8.487860250000006 0 0 0
128 1 4.243930125 22.356631888904978 9.902503624999996 0 0 0
133 1 2.8292867500000014 23.78046768642988 5.658573500000007 0 0 0
135 1 2.829286749999996 23.780467686429876 8.487860249999995 0 0 0
197 1 5.658573500000001 20.93853725963923 5.6585735 0 0 0
198 1 7.073216874999998 22.356631888904985 7.073216875000003 0 0 0
199 1 5.658573500000004 20.93853725963923 8.487860249999999 0 0 0
200 1 7.073216874999996 22.356631888904978 9.902503624999998 0 0 0
205 1 5.658573500000004 23.78046768642988 5.658573500000006 0 0 0
207 1 5.658573500000003 23.780467686429873 8.487860249999992 0 0 0
269 1 8.48786025 20.93853725963923 5.6585735000000055 0 0 0
270 1 9.902503624999996 22.356631888904978 7.073216875000001 0 0 0
271 1 8.487860249999997 20.93853725963923 8.487860249999997 0 0 0
272 1 9.902503624999998 22.356631888904975 9.902503625000001 0 0 0
277 1 8.487860249999997 23.780467686429873 5.658573500000007 0 0 0
279 1 8.487860249999997 23.780467686429876 8.487860249999994 0 0 0
62 1 1.4146433750000014 25.19988693391042 7.073216875000001 0 0 0
64 1 1.4146433750000005 25.199886933910427 9.902503625000003 0 0 0
69 1 0 26.63429539404 5.6585735 0 0 0
70 1 1.414643375 28.048937423841 7.073216875 0 0 0
71 1 0 26.63429539404 8.48786025 0 0 0
72 1 1.414643375 28.048937423841 9.902503625 0 0 0
134 1 4.243930125 25.19988693391042 7.073216875 0 0 0
136 1 4.243930125000003 25.19988693391043 9.902503624999998 0 0 0
141 1 2.82928675 26.63429539404 5.6585735 0 0 0
142 1 4.243930125 28.048937423841 7.073216875 0 0 0
143 1 2.82928675 26.63429539404 8.48786025 0 0 0
144 1 4.243930125 28.048937423841 9.902503625 0 0 0
206 1 7.073216875 25.199886933910417 7.073216875000003 0 0 0
208 1 7.073216875 25.199886933910424 9.902503625 0 0 0
213 1 5.6585735 26.63429539404 5.6585735 0 0 0
214 1 7.073216875 28.048937423841 7.073216875 0 0 0
215 1 5.6585735 26.63429539404 8.48786025 0 0 0
216 1 7.073216875 28.048937423841 9.902503625 0 0 0
278 1 9.902503625 25.199886933910427 7.073216874999998 0 0 0
280 1 9.902503624999996 25.199886933910427 9.902503625000005 0 0 0
285 1 8.48786025 26.63429539404 5.6585735 0 0 0
286 1 9.902503625 28.048937423841 7.073216875 0 0 0
287 1 8.48786025 26.63429539404 8.48786025 0 0 0
288 1 9.902503625 28.048937423841 9.902503625 0 0 0

Velocities

1 0 0 0
2 0 0 0
3 0 0 0
4 0 0 0
9 0 0 0
10 0 0 0
11 0 0 0
12 0 0 0
73 0 0 0
74 0 0 0
75 0 0 0
76 0 0 0
81 0 0 0
82 0 0 0
83 0 0 0
84 0 0 0
145 0 0 0
146 0 0 0
147 0 0 0
148 0 0 0
153 0 0 0
154 0 0 0
155 0 0 0
156 0 0 0
217 0 0 0
218 0 0 0
219 0 0 0
220 0 0 0
225 0 0 0
226 0 0 0
227 0 0 0
228 0 0 0
17 0 0 0
18 0 0 0
19 0 0 0
20 0 0 0
25 0 0 0
27 0 0 0
89 0 0 0
90 0 0 0
91 0 0 0
92 0 0 0
97 0 0 0
99 0 0 0
161 0 0 0
162 0 0 0
163 0 0 0
164 0 0 0
169 0 0 0
171 0 0 0
233 0 0 0
234 0 0 0
235 0 0 0
236 0 0 0
241 0 0 0
243 0 0 0
26 0 0 0
28 0 0 0
33 0 0 0
34 0 0 0
35 0 0 0
36 0 0 0
98 0 0 0
100 0 0 0
105 0 0 0
106 0 0 0
107 0 0 0
108 0 0 0
170 0 0 0
172 0 0 0
177 0 0 0
178 0 0 0
179 0 0 0
180 0 0 0
242 0 0 0
244 0 0 0
249 0 0 0
250 0 0 0
251 0 0 0
252 0 0 0
41 0 0 0
42 0 0 0
43 0 0 0
44 0 0 0
113 0 0 0
114 0 0 0
115 0 0 0
116 0 0 0
185 0 0 0
186 0 0 0
187 0 0 0
188 0 0 0
257 0 0 0
258 0 0 0
259 0 0 0
260 0 0 0
49 0 0 0
50 0 0 0
51 0 0 0
52 0 0 0
57 0 0 0
59 0 0 0
121 0 0 0
122 0 0 0
123 0 0 0
124 0 0 0
129 0 0 0
131 0 0 0
193 0 0 0
194 0 0 0
195 0 0 0
196 0 0 0
201 0 0 0
203 0 0 0
265 0 0 0
266 0 0 0
267 0 0 0
268 0 0 0
273 0 0 0
275 0 0 0
58 0 0 0
60 0 0 0
65 0 0 0
66 0 0 0
67 0 0 0
68 0 0 0
130 0 0 0
132 0 0 0
137 0 0 0
138 0 0 0
139 0 0 0
140 0 0 0
202 0 0 0
204 0 0 0
209 0 0 0
210 0 0 0
211 0 0 0
212 0 0 0
274 0 0 0
276 0 0 0
281 0 0 0
282 0 0 0
283 0 0 0
284 0 0 0
5 0 0 0
6 0 0 0
7 0 0 0
8 0 0 0
13 0 0 0
14 0 0 0
15 0 0 0
16 0 0 0
77 0 0 0
78 0 0 0
79 0 0 0
80 0 0 0
85 0 0 0
86 0 0 0
87 0 0 0
88 0 0 0
149 0 0 0
150 0 0 0
151 0 0 0
152 0 0 0
157 0 0 0
158 0 0 0
159 0 0 0
160 0 0 0
221 0 0 0
222 0 0 0
223 0 0 0
224 0 0 0
229 0 0 0
230 0 0 0
231 0 0 0
232 0 0 0
21 0 0 0
22 0 0 0
23 0 0 0
24 0 0 0
29 0 0 0
31 0 0 0
93 0 0 0
94 0 0 0
95 0 0 0
96 0 0 0
101 0 0 0
103 0 0 0
165 0 0 0
166 0 0 0
167 0 0 0
168 0 0 0
173 0 0 0
175 0 0 0
237 0 0 0
238 0 0 0
239 0 0 0
240 0 0 0
245 0 0 0
247 0 0 0
30 0 0 0
32 0 0 0
37 0 0 0
38 0 0 0
39 0 0 0
40 0 0 0
102 0 0 0
104 0 0 0
109 0 0 0
110 0 0 0
111 0 0 0
112 0 0 0
174 0 0 0
176 0 0 0
181 0 0 0
182 0 0 0
183 0 0 0
184 0 0 0
246 0 0 0
248 0 0 0
253 0 0 0
254 0 0 0
255 0 0 0
256 0 0 0
45 0 0 0
46 0 0 0
47 0 0 0
48 0 0 0
117 0 0 0
118 0 0 0
119 0 0 0
120 0 0 0
189 0 0 0
190 0 0 0
191 0 0 0
192 0 0 0
261 0 0 0
262 0 0 0
263 0 0 0
264 0 0 0
53 0 0 0
54 0 0 0
55 0 0 0
56 0 0 0
61 0 0 0
63 0 0 0
125 0 0 0
126 0 0 0
127 0 0 0
128 0 0 0
133 0 0 0
135 0 0 0
197 0 0 0
198 0 0 0
199 0 0 0
200 0 0 0
205 0 0 0
207 0 0 0
269 0 0 0
270 0 0 0
271 0 0 0
272 0 0 0
277 0 0 0
279 0 0 0
62 0 0 0
64 0 0 0
69 0 0 0
70 0 0 0
71 0 0 0
72 0 0 0
134 0 0 0
136 0 0 0
141 0 0 0
142 0 0 0
143 0 0 0
144 0 0 0
206 0 0 0
208 0 0 0
213 0 0 0
214 0 0 0
215 0 0 0
216 0 0 0
278 0 0 0
280 0 0 0
285 0 0 0
286 0 0 0
287 0 0 0
288 0 0 0
