LAMMPS data file via write_data, version 29 Aug 2024, timestep = 13, units = metal

288 atoms
1 atom types

0 11.317147 xlo xhi
0 26.463582 ylo yhi
0 11.317147 zlo zhi

Masses

1 55.8

Atoms # atomic

1 1 0 0 0 0 0 0
2 1 1.414643375 1.414643557616 1.414643375 0 0 0
3 1 0 0 2.82928675 0 0 0
4 1 1.414643375 1.414643557616 4.243930125 0 0 0
9 1 0 2.82928660596 0 0 0 0
10 1 1.4146433749999985 4.312464174682527 1.4146433749999978 0 0 0
11 1 0 2.82928660596 2.82928675 0 0 0
12 1 1.4146433750000056 4.312464174682526 4.243930125000002 0 0 0
73 1 2.82928675 0 0 0 0 0
74 1 4.243930125 1.414643557616 1.414643375 0 0 0
75 1 2.82928675 0 2.82928675 0 0 0
76 1 4.243930125 1.414643557616 4.243930125 0 0 0
81 1 2.82928675 2.82928660596 0 0 0 0
82 1 4.243930125000003 4.312464174682524 1.4146433750000025 0 0 0
83 1 2.82928675 2.82928660596 2.82928675 0 0 0
84 1 4.243930125000005 4.312464174682523 4.243930125000005 0 0 0
145 1 5.6585735 0 0 0 0 0
146 1 7.073216875 1.414643557616 1.414643375 0 0 0
147 1 5.6585735 0 2.82928675 0 0 0
148 1 7.073216875 1.414643557616 4.243930125 0 0 0
153 1 5.6585735 2.82928660596 0 0 0 0
154 1 7.073216874999995 4.312464174682527 1.4146433750000036 0 0 0
155 1 5.6585735 2.82928660596 2.82928675 0 0 0
156 1 7.073216875000001 4.312464174682526 4.243930124999998 0 0 0
217 1 8.48786025 0 0 0 0 0
218 1 9.902503625 1.414643557616 1.414643375 0 0 0
219 1 8.48786025 0 2.82928675 0 0 0
220 1 9.902503625 1.414643557616 4.243930125 0 0 0
225 1 8.48786025 2.82928660596 0 0 0 0
226 1 9.902503624999998 4.312464174682529 1.414643374999999 0 0 0
227 1 8.48786025 2.82928660596 2.82928675 0 0 0
228 1 9.902503624999996 4.312464174682529 4.243930124999999 0 0 0
17 1 0 5.792877851077863 1.2174067548036935e-15 0 0 0
18 1 1.4146433749999954 7.278000961399724 1.414643374999999 0 0 0
19 1 5.687224333833919e-16 5.7928778510778605 2.829286749999996 0 0 0
20 1 1.4146433749999991 7.278000961399723 4.243930125 0 0 0
25 1 11.317146999999999 8.759694028738807 1.9513005572562194e-15 -1 0 0
27 1 3.5353899902764374e-16 8.759694028738805 2.8292867499999987 0 0 0
89 1 2.829286749999998 5.792877851077864 11.317146999999997 0 0 -1
90 1 4.243930125 7.278000961399723 1.4146433750000047 0 0 0
91 1 2.8292867499999943 5.792877851077866 2.8292867499999983 0 0 0
92 1 4.243930125 7.27800096139972 4.243930125000002 0 0 0
97 1 2.8292867499999947 8.759694028738814 2.9599849128039386e-15 0 0 0
99 1 2.82928675 8.759694028738803 2.8292867500000027 0 0 0
161 1 5.658573500000006 5.792877851077854 2.089250898327493e-15 0 0 0
162 1 7.07321687500001 7.2780009613997265 1.4146433749999958 0 0 0
163 1 5.658573500000004 5.792877851077859 2.829286749999995 0 0 0
164 1 7.073216875000006 7.27800096139972 4.243930125 0 0 0
169 1 5.658573500000007 8.759694028738807 4.513523751434899e-15 0 0 0
171 1 5.658573500000001 8.759694028738808 2.8292867499999965 0 0 0
233 1 8.487860250000006 5.792877851077862 3.763328112349177e-15 0 0 0
234 1 9.902503625000001 7.278000961399721 1.4146433749999927 0 0 0
235 1 8.487860250000004 5.792877851077856 2.829286750000001 0 0 0
236 1 9.902503625 7.278000961399719 4.243930125000004 0 0 0
241 1 8.487860249999999 8.759694028738805 11.317146999999999 0 0 -1
243 1 8.487860249999992 8.759694028738801 2.829286749999997 0 0 0
26 1 1.4146433750000027 10.242513804736852 1.414643374999985 0 0 0
28 1 1.4146433749999996 10.242513804736847 4.243930125000008 0 0 0
33 1 11.317146999999999 11.722782886494869 11.317146999999997 -1 0 -1
34 1 1.4146433750000045 13.205986094554143 1.4146433750000014 0 0 0
35 1 2.6069329040661238e-15 11.722782886494882 2.829286750000002 0 0 0
36 1 1.4146433749999978 13.205986094554136 4.243930124999997 0 0 0
98 1 4.243930125000002 10.242513804736852 1.4146433749999943 0 0 0
100 1 4.243930124999996 10.242513804736852 4.243930125000005 0 0 0
105 1 2.8292867500000063 11.722782886494874 11.317146999999999 0 0 -1
106 1 4.243930124999994 13.205986094554145 1.4146433749999918 0 0 0
107 1 2.829286750000005 11.722782886494882 2.8292867500000023 0 0 0
108 1 4.243930125000004 13.205986094554142 4.243930124999996 0 0 0
170 1 7.073216875000002 10.242513804736847 1.4146433749999907 0 0 0
172 1 7.073216875000002 10.242513804736852 4.2439301249999986 0 0 0
177 1 5.658573499999997 11.722782886494874 6.446579251951465e-16 0 0 0
178 1 7.073216875000002 13.205986094554147 1.4146433749999978 0 0 0
179 1 5.6585734999999975 11.722782886494883 2.829286750000002 0 0 0
180 1 7.073216875000005 13.205986094554143 4.243930125000004 0 0 0
242 1 9.902503625000007 10.242513804736847 1.4146433749999907 0 0 0
244 1 9.90250362500001 10.242513804736848 4.24393012500001 0 0 0
249 1 8.487860249999997 11.722782886494882 11.317146999999995 0 0 -1
250 1 9.902503624999994 13.205986094554142 1.414643375 0 0 0
251 1 8.48786025 11.722782886494885 2.829286750000001 0 0 0
252 1 9.902503624999998 13.205986094554138 4.243930125000006 0 0 0
41 1 11.317146999999997 14.688873880056939 1.501596382745262e-15 -1 0 0
42 1 1.4146433750000031 16.17528540837773 1.4146433749999996 0 0 0
43 1 2.637062995489899e-15 14.688873880056935 2.829286749999998 0 0 0
44 1 1.4146433749999983 16.175285408377725 4.243930124999996 0 0 0
113 1 2.829286750000004 14.688873880056926 5.9203758982327616e-15 0 0 0
114 1 4.243930125000001 16.17528540837772 1.4146433750000003 0 0 0
115 1 2.829286750000001 14.688873880056935 2.82928675 0 0 0
116 1 4.243930125000002 16.175285408377725 4.243930124999995 0 0 0
185 1 5.6585735 14.688873880056926 7.986070163135517e-15 0 0 0
186 1 7.0732168750000035 16.175285408377732 1.4146433749999943 0 0 0
187 1 5.658573499999998 14.688873880056933 2.8292867499999996 0 0 0
188 1 7.073216875000002 16.17528540837773 4.2439301249999986 0 0 0
257 1 8.48786025 14.688873880056937 2.602269246759005e-16 0 0 0
258 1 9.902503625000001 16.175285408377725 1.414643374999998 0 0 0
259 1 8.48786025 14.688873880056931 2.829286749999998 0 0 0
260 1 9.902503625000005 16.17528540837772 4.243930125 0 0 0
49 1 2.564332418833684e-15 17.662002995875206 4.566794803146215e-15 0 0 0
50 1 1.4146433750000054 19.152983191908515 1.4146433749999965 0 0 0
51 1 3.769120176479997e-15 17.66200299587521 2.829286749999998 0 0 0
52 1 1.4146433750000034 19.15298319190851 4.243930124999999 0 0 0
57 1 11.317146999999999 20.64128194552863 3.568213348313612e-15 -1 0 0
59 1 11.317146999999999 20.64128194552863 2.8292867499999947 -1 0 0
121 1 2.829286749999988 17.66200299587521 7.535866673831283e-15 0 0 0
122 1 4.2439301249999986 19.152983191908515 1.4146433749999994 0 0 0
123 1 2.82928675 17.66200299587521 2.8292867499999925 0 0 0
124 1 4.243930125 19.152983191908522 4.243930125000002 0 0 0
129 1 2.8292867499999947 20.64128194552863 8.552975470639854e-15 0 0 0
131 1 2.829286749999997 20.64128194552863 2.829286749999993 0 0 0
193 1 5.658573500000005 17.66200299587521 1.0224569648859958e-14 0 0 0
194 1 7.073216875000002 19.15298319190851 1.4146433749999954 0 0 0
195 1 5.658573500000003 17.662002995875206 2.8292867499999983 0 0 0
196 1 7.073216875000001 19.152983191908522 4.243930125000004 0 0 0
201 1 5.6585734999999975 20.641281945528625 11.317146999999997 0 0 -1
203 1 5.658573500000001 20.641281945528622 2.829286750000002 0 0 0
265 1 8.487860249999997 17.662002995875206 8.450301858617159e-15 0 0 0
266 1 9.902503625 19.152983191908515 1.4146433750000007 0 0 0
267 1 8.487860249999995 17.662002995875202 2.829286749999998 0 0 0
268 1 9.902503625000003 19.152983191908522 4.243930125000003 0 0 0
273 1 8.48786025 20.641281945528622 11.317146999999999 0 0 -1
275 1 8.487860250000004 20.641281945528625 2.8292867500000045 0 0 0
58 1 1.4146433750000054 22.119879584978367 1.4146433750000018 0 0 0
60 1 1.4146433750000014 22.11987958497837 4.243930124999998 0 0 0
65 1 0 23.63429539404 0 0 0 0
66 1 1.414643375 25.048937423841 1.414643375 0 0 0
67 1 0 23.63429539404 2.82928675 0 0 0
68 1 1.414643375 25.048937423841 4.243930125 0 0 0
130 1 4.2439301249999986 22.119879584978367 1.4146433750000034 0 0 0
132 1 4.243930125000002 22.119879584978367 4.243930125000001 0 0 0
137 1 2.82928675 23.63429539404 0 0 0 0
138 1 4.243930125 25.048937423841 1.414643375 0 0 0
139 1 2.82928675 23.63429539404 2.82928675 0 0 0
140 1 4.243930125 25.048937423841 4.243930125 0 0 0
202 1 7.073216875000002 22.119879584978374 1.414643375000005 0 0 0
204 1 7.073216875000004 22.119879584978374 4.243930124999997 0 0 0
209 1 5.6585735 23.63429539404 0 0 0 0
210 1 7.073216875 25.048937423841 1.414643375 0 0 0
211 1 5.6585735 23.63429539404 2.82928675 0 0 0
212 1 7.073216875 25.048937423841 4.243930125 0 0 0
274 1 9.902503625 22.11987958497837 1.4146433750000038 0 0 0
276 1 9.902503624999994 22.119879584978367 4.2439301249999986 0 0 0
281 1 8.48786025 23.63429539404 0 0 0 0
282 1 9.902503625 25.048937423841 1.414643375 0 0 0
283 1 8.48786025 23.63429539404 2.82928675 0 0 0
284 1 9.902503625 25.048937423841 4.243930125 0 0 0
5 1 0 0 5.6585735 0 0 0
6 1 1.414643375 1.414643557616 7.073216875 0 0 0
7 1 0 0 8.48786025 0 0 0
8 1 1.414643375 1.414643557616 9.902503625 0 0 0
13 1 0 2.82928660596 5.6585735 0 0 0
14 1 1.4146433749999987 4.31246417468253 7.073216875000001 0 0 0
15 1 0 2.82928660596 8.48786025 0 0 0
16 1 1.414643375000001 4.312464174682533 9.902503625000005 0 0 0
77 1 2.82928675 0 5.6585735 0 0 0
78 1 4.243930125 1.414643557616 7.073216875 0 0 0
79 1 2.82928675 0 8.48786025 0 0 0
80 1 4.243930125 1.414643557616 9.902503625 0 0 0
85 1 2.82928675 2.82928660596 5.6585735 0 0 0
86 1 4.243930125000001 4.312464174682529 7.073216875000005 0 0 0
87 1 2.82928675 2.82928660596 8.48786025 0 0 0
88 1 4.2439301249999986 4.3124641746825265 9.902503625 0 0 0
149 1 5.6585735 0 5.6585735 0 0 0
150 1 7.073216875 1.414643557616 7.073216875 0 0 0
151 1 5.6585735 0 8.48786025 0 0 0
152 1 7.073216875 1.414643557616 9.902503625 0 0 0
157 1 5.6585735 2.82928660596 5.6585735 0 0 0
158 1 7.073216874999997 4.312464174682528 7.073216875000006 0 0 0
159 1 5.6585735 2.82928660596 8.48786025 0 0 0
160 1 7.073216875 4.312464174682526 9.902503625000001 0 0 0
221 1 8.48786025 0 5.6585735 0 0 0
222 1 9.902503625 1.414643557616 7.073216875 0 0 0
223 1 8.48786025 0 8.48786025 0 0 0
224 1 9.902503625 1.414643557616 9.902503625 0 0 0
229 1 8.48786025 2.82928660596 5.6585735 0 0 0
230 1 9.902503625 4.312464174682534 7.073216875000003 0 0 0
231 1 8.48786025 2.82928660596 8.48786025 0 0 0
232 1 9.902503624999998 4.312464174682529 9.902503625000001 0 0 0
21 1 3.073869769777337e-15 5.792877851077863 5.658573500000003 0 0 0
22 1 1.4146433750000031 7.278000961399716 7.073216874999998 0 0 0
23 1 11.317146999999997 5.792877851077859 8.487860250000004 -1 0 0
24 1 1.4146433749999971 7.278000961399716 9.902503625000003 0 0 0
29 1 11.317146999999997 8.759694028738812 5.658573499999997 -1 0 0
31 1 11.317146999999995 8.759694028738801 8.487860250000002 -1 0 0
93 1 2.829286749999996 5.792877851077859 5.6585735 0 0 0
94 1 4.243930124999998 7.278000961399723 7.073216874999998 0 0 0
95 1 2.829286749999998 5.792877851077854 8.487860249999997 0 0 0
96 1 4.2439301249999986 7.278000961399723 9.902503625 0 0 0
101 1 2.8292867500000014 8.759694028738807 5.658573499999999 0 0 0
103 1 2.8292867500000014 8.759694028738803 8.487860249999999 0 0 0
165 1 5.658573499999997 5.792877851077863 5.658573500000001 0 0 0
166 1 7.0732168750000035 7.2780009613997185 7.07321687500001 0 0 0
167 1 5.658573500000007 5.792877851077858 8.487860249999992 0 0 0
168 1 7.073216875000002 7.278000961399726 9.902503625000001 0 0 0
173 1 5.6585734999999975 8.759694028738801 5.6585735 0 0 0
175 1 5.6585735 8.7596940287388 8.487860250000008 0 0 0
237 1 8.487860249999999 5.792877851077863 5.658573499999997 0 0 0
238 1 9.902503624999996 7.2780009613997185 7.073216875000011 0 0 0
239 1 8.48786025 5.7928778510778605 8.487860249999999 0 0 0
240 1 9.90250362499999 7.278000961399718 9.902503625 0 0 0
245 1 8.48786025 8.759694028738803 5.658573499999997 0 0 0
247 1 8.487860249999995 8.759694028738798 8.487860250000008 0 0 0
30 1 1.4146433749999963 10.242513804736848 7.073216874999997 0 0 0
32 1 1.414643374999998 10.242513804736852 9.902503625000012 0 0 0
37 1 11.317146999999995 11.722782886494882 5.6585734999999975 -1 0 0
38 1 1.4146433749999947 13.205986094554138 7.073216875000007 0 0 0
39 1 0 11.722782886494878 8.487860249999999 0 0 0
40 1 1.4146433750000036 13.205986094554135 9.902503625 0 0 0
102 1 4.243930124999997 10.242513804736854 7.073216874999997 0 0 0
104 1 4.243930124999997 10.242513804736857 9.902503625000007 0 0 0
109 1 2.829286750000001 11.722782886494873 5.658573499999996 0 0 0
110 1 4.243930124999999 13.205986094554145 7.073216875000003 0 0 0
111 1 2.829286750000003 11.722782886494882 8.487860250000002 0 0 0
112 1 4.243930124999995 13.20598609455414 9.902503625000007 0 0 0
174 1 7.073216874999999 10.242513804736857 7.073216875000002 0 0 0
176 1 7.073216875000006 10.242513804736848 9.902503625000008 0 0 0
181 1 5.658573500000005 11.722782886494882 5.6585734999999975 0 0 0
182 1 7.0732168749999955 13.205986094554143 7.073216874999999 0 0 0
183 1 5.658573500000002 11.722782886494878 8.487860249999997 0 0 0
184 1 7.073216875000003 13.205986094554138 9.902503625000003 0 0 0
246 1 9.902503625000003 10.242513804736856 7.073216874999997 0 0 0
248 1 9.902503625000001 10.242513804736847 9.902503625000007 0 0 0
253 1 8.487860249999999 11.722782886494878 5.658573499999995 0 0 0
254 1 9.902503625000003 13.20598609455414 7.073216874999997 0 0 0
255 1 8.487860249999999 11.72278288649488 8.48786025 0 0 0
256 1 9.902503625 13.205986094554143 9.902503624999996 0 0 0
45 1 11.317146999999997 14.688873880056933 5.6585735000000055 -1 0 0
46 1 1.414643375 16.175285408377718 7.073216875000001 0 0 0
47 1 1.1742902139257398e-17 14.688873880056939 8.487860249999995 0 0 0
48 1 1.414643375 16.175285408377725 9.902503625 0 0 0
117 1 2.8292867500000027 14.688873880056931 5.658573500000005 0 0 0
118 1 4.243930125 16.175285408377725 7.073216875000005 0 0 0
119 1 2.829286749999995 14.68887388005693 8.487860249999994 0 0 0
120 1 4.243930124999994 16.175285408377725 9.902503625000003 0 0 0
189 1 5.658573500000002 14.688873880056926 5.658573499999997 0 0 0
190 1 7.073216875000003 16.175285408377732 7.073216875000001 0 0 0
191 1 5.658573499999996 14.688873880056926 8.487860249999988 0 0 0
192 1 7.073216875000008 16.175285408377732 9.90250362500001 0 0 0
261 1 8.487860249999999 14.688873880056928 5.658573499999998 0 0 0
262 1 9.902503625000001 16.175285408377725 7.073216875000003 0 0 0
263 1 8.487860250000008 14.688873880056935 8.487860250000002 0 0 0
264 1 9.902503625 16.175285408377725 9.902503625000005 0 0 0
53 1 11.317146999999995 17.662002995875206 5.658573500000004 -1 0 0
54 1 1.4146433749999971 19.15298319190853 7.073216875000002 0 0 0
55 1 11.317146999999993 17.662002995875206 8.487860250000004 -1 0 0
56 1 1.4146433749999994 19.152983191908515 9.902503625000007 0 0 0
61 1 1.0638888082354095e-15 20.641281945528625 5.658573500000012 0 0 0
63 1 3.0856257349781876e-15 20.641281945528632 8.487860249999995 0 0 0
125 1 2.8292867500000063 17.66200299587521 5.658573499999992 0 0 0
126 1 4.243930125000004 19.152983191908522 7.073216875000002 0 0 0
127 1 2.82928675 17.662002995875202 8.487860249999994 0 0 0
128 1 4.243930125000004 19.152983191908525 9.902503625000005 0 0 0
133 1 2.829286750000001 20.641281945528625 5.65857350000001 0 0 0
135 1 2.829286749999992 20.64128194552863 8.487860249999992 0 0 0
197 1 5.658573500000007 17.662002995875206 5.658573500000006 0 0 0
198 1 7.073216874999997 19.152983191908522 7.073216874999998 0 0 0
199 1 5.658573500000001 17.66200299587521 8.487860249999988 0 0 0
200 1 7.073216875 19.15298319190852 9.902503625000003 0 0 0
205 1 5.658573500000004 20.64128194552862 5.658573500000004 0 0 0
207 1 5.658573500000004 20.641281945528625 8.487860249999994 0 0 0
269 1 8.487860249999997 17.66200299587521 5.658573500000007 0 0 0
270 1 9.902503625000003 19.152983191908515 7.073216874999996 0 0 0
271 1 8.487860249999995 17.662002995875206 8.487860249999995 0 0 0
272 1 9.902503624999996 19.152983191908515 9.902503625000001 0 0 0
277 1 8.487860249999997 20.641281945528625 5.658573500000005 0 0 0
279 1 8.487860249999995 20.641281945528632 8.48786025 0 0 0
62 1 1.4146433749999991 22.119879584978364 7.073216875000001 0 0 0
64 1 1.414643375000002 22.119879584978367 9.902503624999996 0 0 0
69 1 0 23.63429539404 5.6585735 0 0 0
70 1 1.414643375 25.048937423841 7.073216875 0 0 0
71 1 0 23.63429539404 8.48786025 0 0 0
72 1 1.414643375 25.048937423841 9.902503625 0 0 0
134 1 4.243930124999998 22.119879584978367 7.073216874999999 0 0 0
136 1 4.243930125 22.119879584978367 9.902503624999998 0 0 0
141 1 2.82928675 23.63429539404 5.6585735 0 0 0
142 1 4.243930125 25.048937423841 7.073216875 0 0 0
143 1 2.82928675 23.63429539404 8.48786025 0 0 0
144 1 4.243930125 25.048937423841 9.902503625 0 0 0
206 1 7.073216875 22.119879584978367 7.073216875000003 0 0 0
208 1 7.073216874999998 22.11987958497837 9.902503624999996 0 0 0
213 1 5.6585735 23.63429539404 5.6585735 0 0 0
214 1 7.073216875 25.048937423841 7.073216875 0 0 0
215 1 5.6585735 23.63429539404 8.48786025 0 0 0
216 1 7.073216875 25.048937423841 9.902503625 0 0 0
278 1 9.902503624999998 22.119879584978367 7.073216875000003 0 0 0
280 1 9.902503624999996 22.119879584978364 9.902503624999996 0 0 0
285 1 8.48786025 23.63429539404 5.6585735 0 0 0
286 1 9.902503625 25.048937423841 7.073216875 0 0 0
287 1 8.48786025 23.63429539404 8.48786025 0 0 0
288 1 9.902503625 25.048937423841 9.902503625 0 0 0

Velocities

1 0 0 0
2 0 0 0
3 0 0 0
4 0 0 0
9 0 0 0
10 0 0 0
11 0 0 0
12 0 0 0
73 0 0 0
74 0 0 0
75 0 0 0
76 0 0 0
81 0 0 0
82 0 0 0
83 0 0 0
84 0 0 0
145 0 0 0
146 0 0 0
147 0 0 0
148 0 0 0
153 0 0 0
154 0 0 0
155 0 0 0
156 0 0 0
217 0 0 0
218 0 0 0
219 0 0 0
220 0 0 0
225 0 0 0
226 0 0 0
227 0 0 0
228 0 0 0
17 0 0 0
18 0 0 0
19 0 0 0
20 0 0 0
25 0 0 0
27 0 0 0
89 0 0 0
90 0 0 0
91 0 0 0
92 0 0 0
97 0 0 0
99 0 0 0
161 0 0 0
162 0 0 0
163 0 0 0
164 0 0 0
169 0 0 0
171 0 0 0
233 0 0 0
234 0 0 0
235 0 0 0
236 0 0 0
241 0 0 0
243 0 0 0
26 0 0 0
28 0 0 0
33 0 0 0
34 0 0 0
35 0 0 0
36 0 0 0
98 0 0 0
100 0 0 0
105 0 0 0
106 0 0 0
107 0 0 0
108 0 0 0
170 0 0 0
172 0 0 0
177 0 0 0
178 0 0 0
179 0 0 0
180 0 0 0
242 0 0 0
244 0 0 0
249 0 0 0
250 0 0 0
251 0 0 0
252 0 0 0
41 0 0 0
42 0 0 0
43 0 0 0
44 0 0 0
113 0 0 0
114 0 0 0
115 0 0 0
116 0 0 0
185 0 0 0
186 0 0 0
187 0 0 0
188 0 0 0
257 0 0 0
258 0 0 0
259 0 0 0
260 0 0 0
49 0 0 0
50 0 0 0
51 0 0 0
52 0 0 0
57 0 0 0
59 0 0 0
121 0 0 0
122 0 0 0
123 0 0 0
124 0 0 0
129 0 0 0
131 0 0 0
193 0 0 0
194 0 0 0
195 0 0 0
196 0 0 0
201 0 0 0
203 0 0 0
265 0 0 0
266 0 0 0
267 0 0 0
268 0 0 0
273 0 0 0
275 0 0 0
58 0 0 0
60 0 0 0
65 0 0 0
66 0 0 0
67 0 0 0
68 0 0 0
130 0 0 0
132 0 0 0
137 0 0 0
138 0 0 0
139 0 0 0
140 0 0 0
202 0 0 0
204 0 0 0
209 0 0 0
210 0 0 0
211 0 0 0
212 0 0 0
274 0 0 0
276 0 0 0
281 0 0 0
282 0 0 0
283 0 0 0
284 0 0 0
5 0 0 0
6 0 0 0
7 0 0 0
8 0 0 0
13 0 0 0
14 0 0 0
15 0 0 0
16 0 0 0
77 0 0 0
78 0 0 0
79 0 0 0
80 0 0 0
85 0 0 0
86 0 0 0
87 0 0 0
88 0 0 0
149 0 0 0
150 0 0 0
151 0 0 0
152 0 0 0
157 0 0 0
158 0 0 0
159 0 0 0
160 0 0 0
221 0 0 0
222 0 0 0
223 0 0 0
224 0 0 0
229 0 0 0
230 0 0 0
231 0 0 0
232 0 0 0
21 0 0 0
22 0 0 0
23 0 0 0
24 0 0 0
29 0 0 0
31 0 0 0
93 0 0 0
94 0 0 0
95 0 0 0
96 0 0 0
101 0 0 0
103 0 0 0
165 0 0 0
166 0 0 0
167 0 0 0
168 0 0 0
173 0 0 0
175 0 0 0
237 0 0 0
238 0 0 0
239 0 0 0
240 0 0 0
245 0 0 0
247 0 0 0
30 0 0 0
32 0 0 0
37 0 0 0
38 0 0 0
39 0 0 0
40 0 0 0
102 0 0 0
104 0 0 0
109 0 0 0
110 0 0 0
111 0 0 0
112 0 0 0
174 0 0 0
176 0 0 0
181 0 0 0
182 0 0 0
183 0 0 0
184 0 0 0
246 0 0 0
248 0 0 0
253 0 0 0
254 0 0 0
255 0 0 0
256 0 0 0
45 0 0 0
46 0 0 0
47 0 0 0
48 0 0 0
117 0 0 0
118 0 0 0
119 0 0 0
120 0 0 0
189 0 0 0
190 0 0 0
191 0 0 0
192 0 0 0
261 0 0 0
262 0 0 0
263 0 0 0
264 0 0 0
53 0 0 0
54 0 0 0
55 0 0 0
56 0 0 0
61 0 0 0
63 0 0 0
125 0 0 0
126 0 0 0
127 0 0 0
128 0 0 0
133 0 0 0
135 0 0 0
197 0 0 0
198 0 0 0
199 0 0 0
200 0 0 0
205 0 0 0
207 0 0 0
269 0 0 0
270 0 0 0
271 0 0 0
272 0 0 0
277 0 0 0
279 0 0 0
62 0 0 0
64 0 0 0
69 0 0 0
70 0 0 0
71 0 0 0
72 0 0 0
134 0 0 0
136 0 0 0
141 0 0 0
142 0 0 0
143 0 0 0
144 0 0 0
206 0 0 0
208 0 0 0
213 0 0 0
214 0 0 0
215 0 0 0
216 0 0 0
278 0 0 0
280 0 0 0
285 0 0 0
286 0 0 0
287 0 0 0
288 0 0 0
