LAMMPS data file via write_data, version 29 Aug 2024, timestep = 7, units = metal

288 atoms
1 atom types

0 11.317147 xlo xhi
0 30.063582 ylo yhi
0 11.317147 zlo zhi

Masses

1 55.8

Atoms # atomic

1 1 0 0 0 0 0 0
2 1 1.414643375 1.414643557616 1.414643375 0 0 0
3 1 0 0 2.82928675 0 0 0
4 1 1.414643375 1.414643557616 4.243930125 0 0 0
9 1 0 2.82928660596 0 0 0 0
10 1 1.4146433750000007 4.236007722676442 1.4146433749999965 0 0 0
11 1 0 2.82928660596 2.82928675 0 0 0
12 1 1.4146433749999991 4.236007722676434 4.243930125000003 0 0 0
73 1 2.82928675 0 0 0 0 0
74 1 4.243930125 1.414643557616 1.414643375 0 0 0
75 1 2.82928675 0 2.82928675 0 0 0
76 1 4.243930125 1.414643557616 4.243930125 0 0 0
81 1 2.82928675 2.82928660596 0 0 0 0
82 1 4.243930125000002 4.236007722676439 1.414643375 0 0 0
83 1 2.82928675 2.82928660596 2.82928675 0 0 0
84 1 4.243930125000003 4.236007722676435 4.243930125000002 0 0 0
145 1 5.6585735 0 0 0 0 0
146 1 7.073216875 1.414643557616 1.414643375 0 0 0
147 1 5.6585735 0 2.82928675 0 0 0
148 1 7.073216875 1.414643557616 4.243930125 0 0 0
153 1 5.6585735 2.82928660596 0 0 0 0
154 1 7.073216874999999 4.236007722676439 1.4146433749999978 0 0 0
155 1 5.6585735 2.82928660596 2.82928675 0 0 0
156 1 7.0732168750000035 4.236007722676433 4.243930125000001 0 0 0
217 1 8.48786025 0 0 0 0 0
218 1 9.902503625 1.414643557616 1.414643375 0 0 0
219 1 8.48786025 0 2.82928675 0 0 0
220 1 9.902503625 1.414643557616 4.243930125 0 0 0
225 1 8.48786025 2.82928660596 0 0 0 0
226 1 9.902503625000003 4.236007722676442 1.414643374999998 0 0 0
227 1 8.48786025 2.82928660596 2.82928675 0 0 0
228 1 9.902503624999996 4.236007722676436 4.243930125000003 0 0 0
17 1 5.978646290356033e-16 5.647655936954911 2.8514935163243187e-15 0 0 0
18 1 1.4146433750000016 7.06128165900284 1.4146433750000031 0 0 0
19 1 1.4118364450402188e-15 5.6476559369549175 2.8292867499999934 0 0 0
20 1 1.4146433750000005 7.06128165900285 4.2439301249999986 0 0 0
25 1 0 8.472572355249909 11.317146999999995 0 0 -1
27 1 0 8.472572355249902 2.8292867500000005 0 0 0
89 1 2.8292867499999987 5.647655936954908 2.1116152902684788e-15 0 0 0
90 1 4.243930125 7.061281659002839 1.4146433750000007 0 0 0
91 1 2.8292867499999974 5.647655936954916 2.829286749999993 0 0 0
92 1 4.243930125000005 7.0612816590028515 4.243930124999997 0 0 0
97 1 2.829286749999999 8.472572355249907 11.317146999999993 0 0 -1
99 1 2.8292867499999996 8.472572355249904 2.829286750000005 0 0 0
161 1 5.6585735 5.647655936954915 3.970042644787257e-15 0 0 0
162 1 7.073216874999999 7.061281659002842 1.4146433750000016 0 0 0
163 1 5.658573500000002 5.647655936954919 2.8292867499999947 0 0 0
164 1 7.0732168749999955 7.061281659002854 4.243930125 0 0 0
169 1 5.658573500000001 8.472572355249902 11.317146999999991 0 0 -1
171 1 5.658573500000003 8.4725723552499 2.829286750000007 0 0 0
233 1 8.487860250000002 5.647655936954912 9.516487029095942e-16 0 0 0
234 1 9.902503625 7.061281659002842 1.4146433749999998 0 0 0
235 1 8.487860250000002 5.6476559369549175 2.829286749999995 0 0 0
236 1 9.902503625 7.061281659002851 4.243930125 0 0 0
241 1 8.48786025 8.472572355249909 11.317146999999993 0 0 -1
243 1 8.487860249999997 8.472572355249904 2.829286750000005 0 0 0
26 1 1.4146433749999994 9.87658621740071 1.414643374999998 0 0 0
28 1 1.4146433750000031 9.876586217400705 4.243930125000001 0 0 0
33 1 1.9458241287040118e-15 11.299929079223038 2.855942193815481e-15 0 0 0
34 1 1.4146433750000038 12.684380287625027 1.4146433750000005 0 0 0
35 1 11.317146999999999 11.299929079223041 2.829286749999997 -1 0 0
36 1 1.4146433750000096 12.684380287625027 4.243930124999996 0 0 0
98 1 4.243930124999997 9.876586217400716 1.414643374999999 0 0 0
100 1 4.243930125 9.876586217400705 4.243930125 0 0 0
105 1 2.8292867500000005 11.299929079223038 1.7451640194989442e-15 0 0 0
106 1 4.243930125 12.684380287625025 1.4146433750000038 0 0 0
107 1 2.8292867499999987 11.299929079223036 2.8292867499999956 0 0 0
108 1 4.2439301249999986 12.684380287625025 4.243930124999995 0 0 0
170 1 7.073216875000005 9.876586217400721 1.4146433750000003 0 0 0
172 1 7.073216875000003 9.87658621740071 4.243930125 0 0 0
177 1 5.658573499999996 11.299929079223038 5.1699442830828074e-15 0 0 0
178 1 7.073216874999999 12.684380287625022 1.4146433750000054 0 0 0
179 1 5.658573500000003 11.299929079223036 2.829286749999998 0 0 0
180 1 7.073216875 12.684380287625025 4.243930124999998 0 0 0
242 1 9.902503624999998 9.876586217400716 1.4146433749999991 0 0 0
244 1 9.902503624999996 9.87658621740071 4.243930125000001 0 0 0
249 1 8.487860249999997 11.299929079223034 6.743788351248512e-15 0 0 0
250 1 9.902503624999994 12.684380287625029 1.4146433750000007 0 0 0
251 1 8.48786025 11.299929079223032 2.8292867499999987 0 0 0
252 1 9.902503625 12.684380287625029 4.243930125000006 0 0 0
41 1 0 18.79259732739728 11.317146999999999 0 0 -1
42 1 1.4146433750000011 20.177211241235106 1.4146433749999991 0 0 0
43 1 1.9789429303422158e-15 18.792597327397285 2.8292867500000027 0 0 0
44 1 1.4146433750000018 20.177211241235106 4.243930125 0 0 0
113 1 2.8292867500000054 18.79259732739729 5.214694881029504e-16 0 0 0
114 1 4.243930124999997 20.17721124123511 1.4146433749999985 0 0 0
115 1 2.829286749999999 18.792597327397285 2.8292867499999943 0 0 0
116 1 4.243930125000002 20.177211241235106 4.243930125000001 0 0 0
185 1 5.658573499999998 18.792597327397285 0 0 0 0
186 1 7.073216874999999 20.17721124123511 1.414643375 0 0 0
187 1 5.658573500000001 18.792597327397285 2.8292867499999996 0 0 0
188 1 7.073216875 20.17721124123511 4.243930125000001 0 0 0
257 1 8.487860249999999 18.792597327397285 11.317146999999997 0 0 -1
258 1 9.902503625000001 20.177211241235106 1.4146433749999976 0 0 0
259 1 8.487860249999995 18.792597327397285 2.829286750000005 0 0 0
260 1 9.902503624999998 20.177211241235106 4.243930125000002 0 0 0
49 1 11.317146999999999 21.600476911029016 11.317146999999999 -1 0 -1
50 1 1.4146433750000034 23.004927493590486 1.4146433749999985 0 0 0
51 1 1.572553742065406e-16 21.60047691102902 2.829286749999999 0 0 0
52 1 1.4146433749999965 23.004927493590497 4.243930124999997 0 0 0
57 1 6.112127678400277e-16 24.41493154634051 11.317146999999995 0 0 -1
59 1 0 24.414931546340508 2.8292867500000094 0 0 0
121 1 2.829286749999999 21.600476911029016 4.424590645686812e-15 0 0 0
122 1 4.243930125000003 23.00492749359049 1.4146433749999971 0 0 0
123 1 2.8292867499999974 21.600476911029016 2.8292867499999934 0 0 0
124 1 4.243930125000005 23.004927493590493 4.243930124999993 0 0 0
129 1 2.8292867500000023 24.41493154634051 11.317146999999993 0 0 -1
131 1 2.829286749999999 24.414931546340508 2.8292867500000054 0 0 0
193 1 5.658573499999999 21.60047691102902 1.3733865201816327e-15 0 0 0
194 1 7.0732168749999955 23.00492749359049 1.4146433750000025 0 0 0
195 1 5.658573500000002 21.600476911029023 2.82928675 0 0 0
196 1 7.073216874999997 23.004927493590493 4.243930124999992 0 0 0
201 1 5.6585734999999975 24.41493154634051 11.317146999999995 0 0 -1
203 1 5.658573500000001 24.4149315463405 2.8292867500000076 0 0 0
265 1 8.487860250000002 21.600476911029016 1.5075513272458022e-16 0 0 0
266 1 9.902503625000001 23.004927493590483 1.4146433750000003 0 0 0
267 1 8.487860249999999 21.600476911029016 2.8292867500000014 0 0 0
268 1 9.902503625000001 23.004927493590493 4.243930124999997 0 0 0
273 1 8.48786025 24.41493154634051 11.317146999999991 0 0 -1
275 1 8.487860249999997 24.414931546340505 2.829286750000008 0 0 0
58 1 1.4146433750000014 25.819984395682564 1.4146433750000014 0 0 0
60 1 1.4146433749999994 25.81998439568256 4.243930124999997 0 0 0
65 1 0 27.23429539404 0 0 0 0
66 1 1.414643375 28.648937423841 1.414643375 0 0 0
67 1 0 27.23429539404 2.82928675 0 0 0
68 1 1.414643375 28.648937423841 4.243930125 0 0 0
130 1 4.243930124999999 25.819984395682567 1.4146433749999978 0 0 0
132 1 4.2439301249999986 25.81998439568256 4.243930124999998 0 0 0
137 1 2.82928675 27.23429539404 0 0 0 0
138 1 4.243930125 28.648937423841 1.414643375 0 0 0
139 1 2.82928675 27.23429539404 2.82928675 0 0 0
140 1 4.243930125 28.648937423841 4.243930125 0 0 0
202 1 7.073216875000001 25.819984395682567 1.4146433749999991 0 0 0
204 1 7.073216875 25.81998439568256 4.243930125000002 0 0 0
209 1 5.6585735 27.23429539404 0 0 0 0
210 1 7.073216875 28.648937423841 1.414643375 0 0 0
211 1 5.6585735 27.23429539404 2.82928675 0 0 0
212 1 7.073216875 28.648937423841 4.243930125 0 0 0
274 1 9.902503624999998 25.819984395682567 1.4146433750000014 0 0 0
276 1 9.902503625 25.81998439568256 4.243930124999997 0 0 0
281 1 8.48786025 27.23429539404 0 0 0 0
282 1 9.902503625 28.648937423841 1.414643375 0 0 0
283 1 8.48786025 27.23429539404 2.82928675 0 0 0
284 1 9.902503625 28.648937423841 4.243930125 0 0 0
5 1 0 0 5.6585735 0 0 0
6 1 1.414643375 1.414643557616 7.073216875 0 0 0
7 1 0 0 8.48786025 0 0 0
8 1 1.414643375 1.414643557616 9.902503625 0 0 0
13 1 0 2.82928660596 5.6585735 0 0 0
14 1 1.4146433749999987 4.236007722676441 7.073216874999999 0 0 0
15 1 0 2.82928660596 8.48786025 0 0 0
16 1 1.4146433750000003 4.236007722676437 9.902503625000001 0 0 0
77 1 2.82928675 0 5.6585735 0 0 0
78 1 4.243930125 1.414643557616 7.073216875 0 0 0
79 1 2.82928675 0 8.48786025 0 0 0
80 1 4.243930125 1.414643557616 9.902503625 0 0 0
85 1 2.82928675 2.82928660596 5.6585735 0 0 0
86 1 4.243930125000003 4.2360077226764385 7.073216874999998 0 0 0
87 1 2.82928675 2.82928660596 8.48786025 0 0 0
88 1 4.243930125 4.236007722676432 9.902503625000003 0 0 0
149 1 5.6585735 0 5.6585735 0 0 0
150 1 7.073216875 1.414643557616 7.073216875 0 0 0
151 1 5.6585735 0 8.48786025 0 0 0
152 1 7.073216875 1.414643557616 9.902503625 0 0 0
157 1 5.6585735 2.82928660596 5.6585735 0 0 0
158 1 7.073216875000002 4.2360077226764385 7.073216875000001 0 0 0
159 1 5.6585735 2.82928660596 8.48786025 0 0 0
160 1 7.0732168750000035 4.2360077226764306 9.902503625000003 0 0 0
221 1 8.48786025 0 5.6585735 0 0 0
222 1 9.902503625 1.414643557616 7.073216875 0 0 0
223 1 8.48786025 0 8.48786025 0 0 0
224 1 9.902503625 1.414643557616 9.902503625 0 0 0
229 1 8.48786025 2.82928660596 5.6585735 0 0 0
230 1 9.902503624999996 4.236007722676444 7.073216875000003 0 0 0
231 1 8.48786025 2.82928660596 8.48786025 0 0 0
232 1 9.902503624999996 4.236007722676438 9.902503625000001 0 0 0
21 1 1.900960983079641e-15 5.647655936954913 5.658573500000005 0 0 0
22 1 1.4146433749999991 7.061281659002841 7.073216875 0 0 0
23 1 11.317146999999999 5.647655936954914 8.487860249999999 -1 0 0
24 1 1.4146433750000034 7.061281659002848 9.902503624999996 0 0 0
29 1 0 8.472572355249907 5.658573499999994 0 0 0
31 1 0 8.472572355249904 8.487860250000006 0 0 0
93 1 2.8292867499999965 5.64765593695491 5.658573500000006 0 0 0
94 1 4.243930125000007 7.061281659002839 7.073216875 0 0 0
95 1 2.829286750000001 5.64765593695491 8.487860249999997 0 0 0
96 1 4.243930124999999 7.061281659002852 9.902503625000001 0 0 0
101 1 2.829286749999999 8.472572355249905 5.658573499999992 0 0 0
103 1 2.829286749999999 8.472572355249907 8.48786025000001 0 0 0
165 1 5.658573499999998 5.647655936954919 5.658573500000007 0 0 0
166 1 7.073216874999994 7.06128165900284 7.073216874999998 0 0 0
167 1 5.658573499999997 5.647655936954917 8.487860249999994 0 0 0
168 1 7.073216875 7.061281659002855 9.902503625000003 0 0 0
173 1 5.6585734999999975 8.472572355249898 5.658573499999993 0 0 0
175 1 5.658573499999998 8.472572355249902 8.487860250000006 0 0 0
237 1 8.48786025 5.647655936954912 5.658573500000008 0 0 0
238 1 9.902503625000001 7.061281659002841 7.073216875000003 0 0 0
239 1 8.487860250000002 5.647655936954911 8.487860249999999 0 0 0
240 1 9.902503624999998 7.0612816590028515 9.902503624999998 0 0 0
245 1 8.487860250000002 8.472572355249909 5.658573499999997 0 0 0
247 1 8.487860250000004 8.472572355249904 8.48786025000001 0 0 0
30 1 1.414643375000002 9.876586217400718 7.073216874999997 0 0 0
32 1 1.4146433750000023 9.876586217400707 9.902503625000003 0 0 0
37 1 0 11.299929079223036 5.658573500000002 0 0 0
38 1 1.414643375000006 12.684380287625025 7.073216874999993 0 0 0
39 1 11.317146999999999 11.299929079223043 8.487860249999999 -1 0 0
40 1 1.414643375000002 12.684380287625025 9.902503625000001 0 0 0
102 1 4.243930124999999 9.876586217400716 7.073216874999997 0 0 0
104 1 4.243930124999998 9.876586217400707 9.902503625000003 0 0 0
109 1 2.8292867500000023 11.299929079223032 5.6585734999999975 0 0 0
110 1 4.243930124999992 12.684380287625025 7.073216874999996 0 0 0
111 1 2.8292867499999996 11.299929079223038 8.487860249999997 0 0 0
112 1 4.2439301249999914 12.684380287625027 9.902503625 0 0 0
174 1 7.073216875 9.87658621740072 7.073216874999999 0 0 0
176 1 7.073216875 9.876586217400707 9.902503625000005 0 0 0
181 1 5.6585734999999975 11.299929079223038 5.658573500000001 0 0 0
182 1 7.073216874999996 12.684380287625027 7.073216875 0 0 0
183 1 5.6585734999999975 11.299929079223043 8.487860249999997 0 0 0
184 1 7.0732168749999955 12.684380287625027 9.902503625000001 0 0 0
246 1 9.902503624999996 9.87658621740072 7.073216874999999 0 0 0
248 1 9.902503624999998 9.876586217400709 9.902503625000003 0 0 0
253 1 8.48786025 11.299929079223038 5.658573500000003 0 0 0
254 1 9.902503625000001 12.684380287625023 7.073216874999997 0 0 0
255 1 8.48786025 11.29992907922304 8.487860249999997 0 0 0
256 1 9.902503625000001 12.684380287625027 9.902503625000007 0 0 0
45 1 11.317146999999997 18.79259732739729 5.658573499999998 -1 0 0
46 1 1.4146433750000051 20.17721124123511 7.073216874999997 0 0 0
47 1 3.013747130657276e-15 18.79259732739729 8.487860249999999 0 0 0
48 1 1.4146433750000003 20.177211241235106 9.902503625000001 0 0 0
117 1 2.829286750000002 18.79259732739729 5.658573499999995 0 0 0
118 1 4.243930124999999 20.177211241235106 7.073216874999996 0 0 0
119 1 2.8292867500000036 18.792597327397285 8.487860250000004 0 0 0
120 1 4.243930125000002 20.177211241235106 9.902503625000001 0 0 0
189 1 5.658573499999999 18.79259732739729 5.658573500000001 0 0 0
190 1 7.073216874999999 20.17721124123511 7.073216874999996 0 0 0
191 1 5.658573500000001 18.792597327397285 8.487860250000004 0 0 0
192 1 7.073216875 20.177211241235106 9.902503625000003 0 0 0
261 1 8.487860250000004 18.792597327397292 5.658573499999999 0 0 0
262 1 9.902503625000003 20.17721124123511 7.073216874999999 0 0 0
263 1 8.487860250000002 18.79259732739729 8.487860250000006 0 0 0
264 1 9.902503625000005 20.17721124123511 9.902503625000003 0 0 0
53 1 8.301673226911926e-17 21.600476911029016 5.6585735 0 0 0
54 1 1.4146433750000047 23.004927493590493 7.073216875000004 0 0 0
55 1 11.317146999999999 21.60047691102902 8.487860249999995 -1 0 0
56 1 1.4146433749999978 23.0049274935905 9.902503625 0 0 0
61 1 2.2506558676212863e-15 24.414931546340508 5.658573499999994 0 0 0
63 1 0 24.41493154634051 8.487860250000002 0 0 0
125 1 2.82928675 21.60047691102901 5.658573500000005 0 0 0
126 1 4.243930125000003 23.00492749359049 7.073216875000008 0 0 0
127 1 2.829286749999999 21.600476911029016 8.487860249999992 0 0 0
128 1 4.243930125000001 23.004927493590497 9.902503625000001 0 0 0
133 1 2.829286749999999 24.41493154634051 5.658573500000002 0 0 0
135 1 2.82928675 24.41493154634051 8.487860249999999 0 0 0
197 1 5.658573499999999 21.600476911029013 5.658573500000003 0 0 0
198 1 7.073216874999998 23.00492749359049 7.073216875000006 0 0 0
199 1 5.658573500000002 21.600476911029023 8.487860249999994 0 0 0
200 1 7.073216875 23.004927493590497 9.902503624999998 0 0 0
205 1 5.658573499999999 24.414931546340515 5.658573499999998 0 0 0
207 1 5.658573499999999 24.414931546340508 8.48786025 0 0 0
269 1 8.48786025 21.600476911029016 5.658573500000004 0 0 0
270 1 9.902503624999996 23.00492749359049 7.073216875000001 0 0 0
271 1 8.487860249999999 21.600476911029016 8.487860249999997 0 0 0
272 1 9.902503625 23.004927493590493 9.902503625000003 0 0 0
277 1 8.487860249999999 24.414931546340515 5.658573499999998 0 0 0
279 1 8.487860249999997 24.41493154634051 8.487860249999999 0 0 0
62 1 1.4146433750000067 25.81998439568256 7.073216875000003 0 0 0
64 1 1.4146433750000023 25.819984395682564 9.902503625 0 0 0
69 1 0 27.23429539404 5.6585735 0 0 0
70 1 1.414643375 28.648937423841 7.073216875 0 0 0
71 1 0 27.23429539404 8.48786025 0 0 0
72 1 1.414643375 28.648937423841 9.902503625 0 0 0
134 1 4.243930124999997 25.81998439568256 7.073216875000002 0 0 0
136 1 4.243930125 25.81998439568256 9.902503625000003 0 0 0
141 1 2.82928675 27.23429539404 5.6585735 0 0 0
142 1 4.243930125 28.648937423841 7.073216875 0 0 0
143 1 2.82928675 27.23429539404 8.48786025 0 0 0
144 1 4.243930125 28.648937423841 9.902503625 0 0 0
206 1 7.0732168750000035 25.81998439568256 7.073216875 0 0 0
208 1 7.073216875000002 25.81998439568256 9.902503625000003 0 0 0
213 1 5.6585735 27.23429539404 5.6585735 0 0 0
214 1 7.073216875 28.648937423841 7.073216875 0 0 0
215 1 5.6585735 27.23429539404 8.48786025 0 0 0
216 1 7.073216875 28.648937423841 9.902503625 0 0 0
278 1 9.902503624999998 25.819984395682564 7.073216875000001 0 0 0
280 1 9.902503624999998 25.819984395682557 9.902503625000005 0 0 0
285 1 8.48786025 27.23429539404 5.6585735 0 0 0
286 1 9.902503625 28.648937423841 7.073216875 0 0 0
287 1 8.48786025 27.23429539404 8.48786025 0 0 0
288 1 9.902503625 28.648937423841 9.902503625 0 0 0

Velocities

1 0 0 0
2 0 0 0
3 0 0 0
4 0 0 0
9 0 0 0
10 0 0 0
11 0 0 0
12 0 0 0
73 0 0 0
74 0 0 0
75 0 0 0
76 0 0 0
81 0 0 0
82 0 0 0
83 0 0 0
84 0 0 0
145 0 0 0
146 0 0 0
147 0 0 0
148 0 0 0
153 0 0 0
154 0 0 0
155 0 0 0
156 0 0 0
217 0 0 0
218 0 0 0
219 0 0 0
220 0 0 0
225 0 0 0
226 0 0 0
227 0 0 0
228 0 0 0
17 0 0 0
18 0 0 0
19 0 0 0
20 0 0 0
25 0 0 0
27 0 0 0
89 0 0 0
90 0 0 0
91 0 0 0
92 0 0 0
97 0 0 0
99 0 0 0
161 0 0 0
162 0 0 0
163 0 0 0
164 0 0 0
169 0 0 0
171 0 0 0
233 0 0 0
234 0 0 0
235 0 0 0
236 0 0 0
241 0 0 0
243 0 0 0
26 0 0 0
28 0 0 0
33 0 0 0
34 0 0 0
35 0 0 0
36 0 0 0
98 0 0 0
100 0 0 0
105 0 0 0
106 0 0 0
107 0 0 0
108 0 0 0
170 0 0 0
172 0 0 0
177 0 0 0
178 0 0 0
179 0 0 0
180 0 0 0
242 0 0 0
244 0 0 0
249 0 0 0
250 0 0 0
251 0 0 0
252 0 0 0
41 0 0 0
42 0 0 0
43 0 0 0
44 0 0 0
113 0 0 0
114 0 0 0
115 0 0 0
116 0 0 0
185 0 0 0
186 0 0 0
187 0 0 0
188 0 0 0
257 0 0 0
258 0 0 0
259 0 0 0
260 0 0 0
49 0 0 0
50 0 0 0
51 0 0 0
52 0 0 0
57 0 0 0
59 0 0 0
121 0 0 0
122 0 0 0
123 0 0 0
124 0 0 0
129 0 0 0
131 0 0 0
193 0 0 0
194 0 0 0
195 0 0 0
196 0 0 0
201 0 0 0
203 0 0 0
265 0 0 0
266 0 0 0
267 0 0 0
268 0 0 0
273 0 0 0
275 0 0 0
58 0 0 0
60 0 0 0
65 0 0 0
66 0 0 0
67 0 0 0
68 0 0 0
130 0 0 0
132 0 0 0
137 0 0 0
138 0 0 0
139 0 0 0
140 0 0 0
202 0 0 0
204 0 0 0
209 0 0 0
210 0 0 0
211 0 0 0
212 0 0 0
274 0 0 0
276 0 0 0
281 0 0 0
282 0 0 0
283 0 0 0
284 0 0 0
5 0 0 0
6 0 0 0
7 0 0 0
8 0 0 0
13 0 0 0
14 0 0 0
15 0 0 0
16 0 0 0
77 0 0 0
78 0 0 0
79 0 0 0
80 0 0 0
85 0 0 0
86 0 0 0
87 0 0 0
88 0 0 0
149 0 0 0
150 0 0 0
151 0 0 0
152 0 0 0
157 0 0 0
158 0 0 0
159 0 0 0
160 0 0 0
221 0 0 0
222 0 0 0
223 0 0 0
224 0 0 0
229 0 0 0
230 0 0 0
231 0 0 0
232 0 0 0
21 0 0 0
22 0 0 0
23 0 0 0
24 0 0 0
29 0 0 0
31 0 0 0
93 0 0 0
94 0 0 0
95 0 0 0
96 0 0 0
101 0 0 0
103 0 0 0
165 0 0 0
166 0 0 0
167 0 0 0
168 0 0 0
173 0 0 0
175 0 0 0
237 0 0 0
238 0 0 0
239 0 0 0
240 0 0 0
245 0 0 0
247 0 0 0
30 0 0 0
32 0 0 0
37 0 0 0
38 0 0 0
39 0 0 0
40 0 0 0
102 0 0 0
104 0 0 0
109 0 0 0
110 0 0 0
111 0 0 0
112 0 0 0
174 0 0 0
176 0 0 0
181 0 0 0
182 0 0 0
183 0 0 0
184 0 0 0
246 0 0 0
248 0 0 0
253 0 0 0
254 0 0 0
255 0 0 0
256 0 0 0
45 0 0 0
46 0 0 0
47 0 0 0
48 0 0 0
117 0 0 0
118 0 0 0
119 0 0 0
120 0 0 0
189 0 0 0
190 0 0 0
191 0 0 0
192 0 0 0
261 0 0 0
262 0 0 0
263 0 0 0
264 0 0 0
53 0 0 0
54 0 0 0
55 0 0 0
56 0 0 0
61 0 0 0
63 0 0 0
125 0 0 0
126 0 0 0
127 0 0 0
128 0 0 0
133 0 0 0
135 0 0 0
197 0 0 0
198 0 0 0
199 0 0 0
200 0 0 0
205 0 0 0
207 0 0 0
269 0 0 0
270 0 0 0
271 0 0 0
272 0 0 0
277 0 0 0
279 0 0 0
62 0 0 0
64 0 0 0
69 0 0 0
70 0 0 0
71 0 0 0
72 0 0 0
134 0 0 0
136 0 0 0
141 0 0 0
142 0 0 0
143 0 0 0
144 0 0 0
206 0 0 0
208 0 0 0
213 0 0 0
214 0 0 0
215 0 0 0
216 0 0 0
278 0 0 0
280 0 0 0
285 0 0 0
286 0 0 0
287 0 0 0
288 0 0 0
