LAMMPS data file via write_data, version 29 Aug 2024, timestep = 5, units = metal

240 atoms
1 atom types

0 13.98284573 xlo xhi
0 29.21841258 ylo yhi
0 8.07299975 zlo zhi

Masses

1 55.8

Atoms # atomic

12 1 3.4345976828147453 4.867881587565907 1.9829659233330017 0 0 0
14 1 1.104123392353 0.978309288037 6.019465798333 0 0 0
20 1 2.26936048991 1.511660948117 4.001215860833 0 0 0
74 1 3.4345976828147498 4.867881587565908 6.019465798332997 0 0 0
119 1 2.2693605400250423 4.035847504952632 8.037715735833 0 0 0
162 1 4.599834824853 3.240284549262 8.037715735833 0 0 0
164 1 3.434597727296 2.374575787602 1.982965923333 0 0 0
165 1 1.104123392353 3.240284549262 1.982965923333 0 0 0
171 1 4.599834824853 0.978309288037 4.001215860833 0 0 0
207 1 4.599834824853 3.240284549262 4.001215860833 0 0 0
209 1 3.434597727296 2.374575787602 6.019465798333 0 0 0
210 1 1.104123392353 3.240284549262 6.019465798333 0 0 0
211 1 2.2693605400250485 4.035847504952627 4.001215860832999 0 0 0
227 1 4.599834824853 0.978309288037 8.037715735833 0 0 0
230 1 1.104123392353 0.978309288037 1.982965923333 0 0 0
231 1 2.26936048991 1.511660948117 8.037715735833 0 0 0
16 1 8.095546257353 3.240284549262 6.019465798333 0 0 0
21 1 9.260783405025046 4.035847504952635 4.0012158608330015 0 0 0
25 1 6.930309159796 2.374575787602 4.001215860833 0 0 0
71 1 6.930309115314749 4.8678815875659085 8.037715735833 0 0 0
124 1 8.095546257353 3.240284549262 1.982965923333 0 0 0
125 1 9.260783405025043 4.035847504952633 8.037715735833 0 0 0
159 1 8.095546257353 0.978309288037 6.019465798333 0 0 0
160 1 9.26078335491 1.511660948117 4.001215860833 0 0 0
163 1 5.765071972525046 4.035847504952631 1.9829659233330013 0 0 0
168 1 8.095546257353 0.978309288037 1.982965923333 0 0 0
169 1 9.26078335491 1.511660948117 8.037715735833 0 0 0
172 1 5.76507192241 1.511660948117 6.019465798333 0 0 0
200 1 6.930309115314744 4.8678815875659085 4.001215860833005 0 0 0
206 1 6.930309159796 2.374575787602 8.037715735833 0 0 0
208 1 5.765071972525041 4.035847504952637 6.0194657983329956 0 0 0
228 1 5.76507192241 1.511660948117 1.982965923333 0 0 0
1 1 11.591257689853 3.240284549262 4.001215860833 0 0 0
7 1 12.756494837525043 4.035847504952631 6.019465798332998 0 0 0
11 1 10.426020592296 2.374575787602 6.019465798333 0 0 0
32 1 13.92173198031475 4.8678815875659085 8.037715735832997 0 0 0
33 1 11.591257689853 0.978309288037 4.001215860833 0 0 0
36 1 12.75649478741 1.511660948117 6.019465798333 0 0 0
68 1 10.426020547814742 4.867881587565909 1.9829659233329993 0 0 0
77 1 13.921731980314744 4.867881587565908 4.001215860833004 0 0 0
80 1 10.426020547814746 4.867881587565909 6.019465798332998 0 0 0
120 1 13.921732024796 2.374575787602 8.037715735833 0 0 0
121 1 11.591257689853 3.240284549262 8.037715735833 0 0 0
122 1 12.756494837525045 4.035847504952628 1.9829659233329975 0 0 0
123 1 10.426020592296 2.374575787602 1.982965923333 0 0 0
166 1 12.75649478741 1.511660948117 1.982965923333 0 0 0
213 1 13.921732024796 2.374575787602 4.001215860833 0 0 0
233 1 11.591257689853 0.978309288037 8.037715735833 0 0 0
19 1 1.1041233935646355 5.671498414743018 1.9829659233330006 0 0 0
28 1 2.269360536912755 6.485476249584827 8.037715735832998 0 0 0
31 1 4.599834826064635 5.671498414743014 8.037715735832997 0 0 0
72 1 4.599834826064635 5.671498414743013 4.001215860833006 0 0 0
75 1 1.1041233935646306 5.671498414743016 6.019465798333003 0 0 0
76 1 2.269360536912758 6.48547624958483 4.001215860832998 0 0 0
106 1 4.59983482479832 8.113689590355797 4.001215860833 0 0 0
108 1 3.4345976808465366 7.3046912989117 6.019465798332998 0 0 0
109 1 1.1041233922983191 8.113689590355799 6.019465798333003 0 0 0
110 1 2.269360537491375 8.92005281581143 4.001215860832997 0 0 0
201 1 4.599834824798321 8.113689590355802 8.037715735832997 0 0 0
203 1 3.4345976808465344 7.304691298911702 1.9829659233330037 0 0 0
204 1 1.1041233922983185 8.113689590355795 1.982965923333002 0 0 0
205 1 2.2693605374913735 8.920052815811431 8.037715735832998 0 0 0
5 1 5.765071969412758 6.485476249584827 1.9829659233329981 0 0 0
69 1 8.095546258564635 5.671498414743014 1.982965923332995 0 0 0
70 1 9.260783401912752 6.485476249584828 8.037715735833002 0 0 0
73 1 5.765071969412756 6.485476249584823 6.019465798332998 0 0 0
81 1 8.095546258564633 5.6714984147430165 6.019465798333003 0 0 0
107 1 5.765071969991377 8.920052815811433 6.019465798333002 0 0 0
130 1 8.095546257298318 8.113689590355795 1.9829659233329948 0 0 0
131 1 9.260783402491375 8.920052815811431 8.037715735833004 0 0 0
132 1 6.93030911334654 7.3046912989117 8.037715735833 0 0 0
188 1 8.095546257298315 8.113689590355797 6.019465798332999 0 0 0
189 1 9.260783402491375 8.920052815811433 4.001215860833003 0 0 0
190 1 6.930309113346538 7.304691298911702 4.001215860833003 0 0 0
199 1 9.260783401912756 6.485476249584825 4.0012158608330015 0 0 0
202 1 5.765071969991378 8.920052815811433 1.9829659233329986 0 0 0
35 1 11.591257691064632 5.671498414743019 8.037715735832998 0 0 0
38 1 12.756494834412752 6.485476249584836 1.982965923332999 0 0 0
78 1 11.59125769106463 5.671498414743018 4.0012158608330015 0 0 0
79 1 12.756494834412756 6.485476249584827 6.019465798333 0 0 0
111 1 13.921731978346537 7.304691298911704 4.001215860833001 0 0 0
112 1 11.59125768979832 8.113689590355795 4.001215860833 0 0 0
126 1 13.921731978346537 7.304691298911702 8.037715735833 0 0 0
127 1 11.591257689798319 8.1136895903558 8.037715735833004 0 0 0
128 1 12.756494834991376 8.920052815811427 1.9829659233329977 0 0 0
129 1 10.42602054584654 7.304691298911698 1.9829659233329977 0 0 0
186 1 12.756494834991376 8.92005281581143 6.019465798333 0 0 0
187 1 10.426020545846542 7.304691298911699 6.019465798333 0 0 0
51 1 4.59983482878456 10.651948164976849 4.001215860833 0 0 0
53 1 3.4345976832167735 9.748899970333524 6.019465798333001 0 0 0
54 1 1.1041233962845618 10.651948164976847 6.019465798333001 0 0 0
64 1 3.4345976860825234 12.078019487833386 6.019465798333002 0 0 0
152 1 3.43459768321677 9.748899970333522 1.9829659233330026 0 0 0
153 1 1.104123396284563 10.651948164976847 1.9829659233329975 0 0 0
154 1 2.2693605417799634 11.345241789516344 8.037715735832998 0 0 0
177 1 2.2693605417799607 11.345241789516347 4.001215860833 0 0 0
191 1 4.599834828784561 10.65194816497685 8.037715735833002 0 0 0
195 1 3.4345976860825225 12.078019487833384 1.9829659233329995 0 0 0
3 1 6.9303091157167716 9.748899970333522 4.0012158608330015 0 0 0
40 1 6.93030911858252 12.078019487833387 8.037715735833 0 0 0
48 1 8.09554626128456 10.65194816497685 1.9829659233329977 0 0 0
49 1 9.26078340677996 11.345241789516344 8.037715735833002 0 0 0
50 1 6.930309115716768 9.748899970333522 8.037715735833 0 0 0
52 1 5.765071974279959 11.345241789516342 6.019465798333002 0 0 0
98 1 6.930309118582522 12.078019487833389 4.001215860832996 0 0 0
184 1 8.09554626128456 10.651948164976849 6.019465798332998 0 0 0
185 1 9.26078340677996 11.345241789516344 4.001215860833001 0 0 0
192 1 5.765071974279958 11.345241789516342 1.9829659233329997 0 0 0
34 1 10.42602055108252 12.078019487833384 1.9829659233330013 0 0 0
66 1 13.921731983582523 12.078019487833389 4.001215860833003 0 0 0
96 1 10.426020551082525 12.078019487833382 6.019465798332998 0 0 0
155 1 13.921731980716773 9.748899970333522 8.037715735833002 0 0 0
156 1 11.59125769378456 10.65194816497685 8.037715735833002 0 0 0
157 1 12.756494839279965 11.345241789516345 1.982965923333001 0 0 0
158 1 10.426020548216771 9.74889997033352 1.9829659233329973 0 0 0
179 1 13.921731980716773 9.74889997033352 4.001215860833 0 0 0
181 1 11.59125769378456 10.651948164976849 4.001215860833 0 0 0
182 1 12.756494839279963 11.345241789516345 6.019465798332998 0 0 0
183 1 10.426020548216773 9.748899970333522 6.019465798332996 0 0 0
197 1 13.92173198358252 12.078019487833384 8.037715735832998 0 0 0
63 1 2.2693605290906818 17.74773415320176 4.001215860833001 0 0 0
65 1 4.599834818192503 18.482165808368045 4.001215860832998 0 0 0
67 1 1.1041233856925083 18.48216580836805 6.019465798333001 0 0 0
90 1 3.4345976746252873 19.173921700336837 1.9829659233330017 0 0 0
175 1 3.4345976746252855 19.173921700336834 6.019465798332999 0 0 0
194 1 2.269360529090683 17.747734153201755 8.037715735833 0 0 0
196 1 4.5998348181925035 18.482165808368045 8.037715735833 0 0 0
198 1 1.104123385692504 18.482165808368045 1.9829659233330004 0 0 0
24 1 9.260783394090684 17.74773415320176 8.037715735833 0 0 0
41 1 8.0955462506925 18.482165808368045 1.9829659233329995 0 0 0
46 1 6.930309107125286 19.173921700336837 4.001215860833 0 0 0
62 1 5.765071961590682 17.747734153201762 6.019465798333001 0 0 0
95 1 9.260783394090685 17.74773415320176 4.001215860833001 0 0 0
99 1 8.095546250692504 18.48216580836804 6.019465798333001 0 0 0
104 1 6.930309107125286 19.173921700336834 8.037715735833 0 0 0
193 1 5.7650719615906825 17.74773415320176 1.9829659233330008 0 0 0
9 1 12.756494826590686 17.747734153201762 1.9829659233330024 0 0 0
39 1 11.591257683192506 18.482165808368045 8.037715735832998 0 0 0
44 1 10.42602053962529 19.173921700336837 6.019465798332999 0 0 0
92 1 13.921731972125285 19.173921700336837 8.037715735833 0 0 0
94 1 12.756494826590682 17.747734153201762 6.019465798332999 0 0 0
97 1 11.591257683192506 18.48216580836805 4.001215860833002 0 0 0
102 1 10.42602053962529 19.173921700336837 1.982965923332999 0 0 0
178 1 13.921731972125286 19.173921700336834 4.001215860833001 0 0 0
89 1 2.269360532332162 20.078431290310082 8.037715735832998 0 0 0
91 1 4.59983482139192 20.903742417680576 8.037715735832998 0 0 0
93 1 1.1041233888919202 20.903742417680576 1.9829659233329977 0 0 0
114 1 2.26936053599427 22.522265252445433 8.037715735832998 0 0 0
115 1 3.4345976788649413 21.710284139942377 1.9829659233329975 0 0 0
116 1 4.5998348253255985 23.332799918400674 8.037715735833 0 0 0
118 1 1.1041233928255942 23.33279991840068 1.9829659233329986 0 0 0
134 1 2.26936053599427 22.522265252445425 4.0012158608330015 0 0 0
135 1 3.43459767886494 21.71028413994238 6.019465798333001 0 0 0
136 1 4.599834825325595 23.332799918400678 4.0012158608330015 0 0 0
138 1 1.104123392825595 23.332799918400674 6.019465798333002 0 0 0
174 1 2.2693605323321635 20.07843129031008 4.001215860833004 0 0 0
176 1 4.599834821391922 20.90374241768058 4.001215860833002 0 0 0
180 1 1.1041233888919195 20.903742417680576 6.019465798332998 0 0 0
222 1 3.434597682538739 24.155023914301246 1.9829659233329964 0 0 0
224 1 3.4345976825387354 24.155023914301246 6.019465798333 0 0 0
23 1 6.930309115038741 24.15502391430125 4.001215860833001 0 0 0
43 1 9.260783397332164 20.078431290310082 4.001215860833007 0 0 0
47 1 8.095546253891923 20.90374241768058 6.0194657983329956 0 0 0
83 1 9.26078340099427 22.52226525244543 4.0012158608330015 0 0 0
86 1 6.93030911136494 21.710284139942377 4.001215860833003 0 0 0
87 1 8.095546257825598 23.332799918400678 6.019465798333002 0 0 0
88 1 5.765071964832161 20.078431290310075 1.9829659233330001 0 0 0
101 1 9.260783397332162 20.07843129031008 8.037715735833 0 0 0
105 1 8.095546253891921 20.903742417680576 1.982965923332998 0 0 0
113 1 5.765071968494271 22.522265252445433 1.9829659233329977 0 0 0
133 1 5.76507196849427 22.522265252445425 6.019465798333002 0 0 0
147 1 9.260783400994272 22.522265252445433 8.037715735833 0 0 0
150 1 6.930309111364938 21.710284139942384 8.037715735833002 0 0 0
151 1 8.095546257825594 23.332799918400678 1.982965923332998 0 0 0
173 1 5.765071964832162 20.07843129031008 6.019465798332997 0 0 0
217 1 6.930309115038735 24.15502391430124 8.037715735832998 0 0 0
15 1 10.426020547538734 24.155023914301243 6.019465798333 0 0 0
42 1 12.75649482983216 20.07843129031008 6.019465798333003 0 0 0
45 1 11.591257686391918 20.903742417680576 4.001215860833 0 0 0
56 1 13.92173198003874 24.155023914301243 8.037715735832998 0 0 0
60 1 10.426020547538739 24.155023914301243 1.9829659233330008 0 0 0
82 1 12.756494833494274 22.522265252445425 6.019465798333004 0 0 0
84 1 10.426020543864936 21.710284139942377 6.019465798333002 0 0 0
85 1 11.591257690325595 23.332799918400678 4.001215860832997 0 0 0
100 1 12.756494829832162 20.078431290310082 1.982965923332999 0 0 0
103 1 11.591257686391922 20.90374241768058 8.037715735832997 0 0 0
117 1 13.921731976364937 21.71028413994238 8.037715735832998 0 0 0
137 1 13.921731976364942 21.71028413994238 4.001215860833005 0 0 0
146 1 12.756494833494273 22.522265252445425 1.9829659233329942 0 0 0
148 1 10.426020543864936 21.71028413994238 1.9829659233330004 0 0 0
149 1 11.591257690325596 23.332799918400678 8.037715735833002 0 0 0
226 1 13.921731980038736 24.155023914301246 4.0012158608330015 0 0 0
2 1 1.104123392353 25.762058453958 6.019465798333 0 0 0
4 1 3.434597727296 29.11037779161 6.019465798333 0 0 0
13 1 2.26936048991 27.490681807918 8.037715735833 0 0 0
17 1 3.434597727296 26.627767215617 1.982965923333 0 0 0
22 1 4.599834824853 28.024033467998 8.037715735833 0 0 0
30 1 1.104123392353 28.024033467998 1.982965923333 0 0 0
55 1 4.599834824853 25.762058453958 8.037715735833 0 0 0
57 1 1.104123392353 25.762058453958 1.982965923333 0 0 0
139 1 2.26936048991 27.490681807918 4.001215860833 0 0 0
140 1 3.434597727296 26.627767215617 6.019465798333 0 0 0
141 1 4.599834824853 28.024033467998 4.001215860833 0 0 0
143 1 1.104123392353 28.024033467998 6.019465798333 0 0 0
220 1 2.2693605398412102 24.964665985054516 8.037715735832998 0 0 0
223 1 2.269360539841209 24.96466598505452 4.001215860833002 0 0 0
225 1 4.599834824853 25.762058453958 4.001215860833 0 0 0
229 1 3.434597727296 29.11037779161 1.982965923333 0 0 0
8 1 5.76507192241 27.490681807918 1.982965923333 0 0 0
10 1 9.26078340484121 24.964665985054516 4.001215860833001 0 0 0
27 1 8.095546257353 25.762058453958 6.019465798333 0 0 0
59 1 9.26078340484121 24.964665985054513 8.037715735832997 0 0 0
145 1 9.26078335491 27.490681807918 4.001215860833 0 0 0
161 1 6.930309159796 29.11037779161 4.001215860833 0 0 0
170 1 6.930309159796 29.11037779161 8.037715735833 0 0 0
215 1 6.930309159796 26.627767215617 4.001215860833 0 0 0
216 1 8.095546257353 28.024033467998 6.019465798333 0 0 0
218 1 5.765071972341209 24.964665985054516 1.982965923332997 0 0 0
219 1 8.095546257353 25.762058453958 1.982965923333 0 0 0
221 1 5.76507197234121 24.964665985054516 6.019465798333002 0 0 0
235 1 9.26078335491 27.490681807918 8.037715735833 0 0 0
238 1 6.930309159796 26.627767215617 8.037715735833 0 0 0
239 1 8.095546257353 28.024033467998 1.982965923333 0 0 0
240 1 5.76507192241 27.490681807918 6.019465798333 0 0 0
6 1 12.75649483734121 24.96466598505452 6.019465798333001 0 0 0
18 1 11.591257689853 25.762058453958 4.001215860833 0 0 0
26 1 13.921732024796 26.627767215617 8.037715735833 0 0 0
29 1 13.921732024796 29.11037779161 4.001215860833 0 0 0
37 1 10.426020592296 29.11037779161 6.019465798333 0 0 0
58 1 12.75649483734121 24.964665985054516 1.9829659233329997 0 0 0
61 1 11.591257689853 25.762058453958 8.037715735833 0 0 0
142 1 13.921732024796 26.627767215617 4.001215860833 0 0 0
144 1 12.75649478741 27.490681807918 6.019465798333 0 0 0
167 1 10.426020592296 29.11037779161 1.982965923333 0 0 0
212 1 10.426020592296 26.627767215617 6.019465798333 0 0 0
214 1 11.591257689853 28.024033467998 4.001215860833 0 0 0
232 1 13.921732024796 29.11037779161 8.037715735833 0 0 0
234 1 12.75649478741 27.490681807918 1.982965923333 0 0 0
236 1 10.426020592296 26.627767215617 1.982965923333 0 0 0
237 1 11.591257689853 28.024033467998 8.037715735833 0 0 0

Velocities

12 0 0 0
14 0 0 0
20 0 0 0
74 0 0 0
119 0 0 0
162 0 0 0
164 0 0 0
165 0 0 0
171 0 0 0
207 0 0 0
209 0 0 0
210 0 0 0
211 0 0 0
227 0 0 0
230 0 0 0
231 0 0 0
16 0 0 0
21 0 0 0
25 0 0 0
71 0 0 0
124 0 0 0
125 0 0 0
159 0 0 0
160 0 0 0
163 0 0 0
168 0 0 0
169 0 0 0
172 0 0 0
200 0 0 0
206 0 0 0
208 0 0 0
228 0 0 0
1 0 0 0
7 0 0 0
11 0 0 0
32 0 0 0
33 0 0 0
36 0 0 0
68 0 0 0
77 0 0 0
80 0 0 0
120 0 0 0
121 0 0 0
122 0 0 0
123 0 0 0
166 0 0 0
213 0 0 0
233 0 0 0
19 0 0 0
28 0 0 0
31 0 0 0
72 0 0 0
75 0 0 0
76 0 0 0
106 0 0 0
108 0 0 0
109 0 0 0
110 0 0 0
201 0 0 0
203 0 0 0
204 0 0 0
205 0 0 0
5 0 0 0
69 0 0 0
70 0 0 0
73 0 0 0
81 0 0 0
107 0 0 0
130 0 0 0
131 0 0 0
132 0 0 0
188 0 0 0
189 0 0 0
190 0 0 0
199 0 0 0
202 0 0 0
35 0 0 0
38 0 0 0
78 0 0 0
79 0 0 0
111 0 0 0
112 0 0 0
126 0 0 0
127 0 0 0
128 0 0 0
129 0 0 0
186 0 0 0
187 0 0 0
51 0 0 0
53 0 0 0
54 0 0 0
64 0 0 0
152 0 0 0
153 0 0 0
154 0 0 0
177 0 0 0
191 0 0 0
195 0 0 0
3 0 0 0
40 0 0 0
48 0 0 0
49 0 0 0
50 0 0 0
52 0 0 0
98 0 0 0
184 0 0 0
185 0 0 0
192 0 0 0
34 0 0 0
66 0 0 0
96 0 0 0
155 0 0 0
156 0 0 0
157 0 0 0
158 0 0 0
179 0 0 0
181 0 0 0
182 0 0 0
183 0 0 0
197 0 0 0
63 0 0 0
65 0 0 0
67 0 0 0
90 0 0 0
175 0 0 0
194 0 0 0
196 0 0 0
198 0 0 0
24 0 0 0
41 0 0 0
46 0 0 0
62 0 0 0
95 0 0 0
99 0 0 0
104 0 0 0
193 0 0 0
9 0 0 0
39 0 0 0
44 0 0 0
92 0 0 0
94 0 0 0
97 0 0 0
102 0 0 0
178 0 0 0
89 0 0 0
91 0 0 0
93 0 0 0
114 0 0 0
115 0 0 0
116 0 0 0
118 0 0 0
134 0 0 0
135 0 0 0
136 0 0 0
138 0 0 0
174 0 0 0
176 0 0 0
180 0 0 0
222 0 0 0
224 0 0 0
23 0 0 0
43 0 0 0
47 0 0 0
83 0 0 0
86 0 0 0
87 0 0 0
88 0 0 0
101 0 0 0
105 0 0 0
113 0 0 0
133 0 0 0
147 0 0 0
150 0 0 0
151 0 0 0
173 0 0 0
217 0 0 0
15 0 0 0
42 0 0 0
45 0 0 0
56 0 0 0
60 0 0 0
82 0 0 0
84 0 0 0
85 0 0 0
100 0 0 0
103 0 0 0
117 0 0 0
137 0 0 0
146 0 0 0
148 0 0 0
149 0 0 0
226 0 0 0
2 0 0 0
4 0 0 0
13 0 0 0
17 0 0 0
22 0 0 0
30 0 0 0
55 0 0 0
57 0 0 0
139 0 0 0
140 0 0 0
141 0 0 0
143 0 0 0
220 0 0 0
223 0 0 0
225 0 0 0
229 0 0 0
8 0 0 0
10 0 0 0
27 0 0 0
59 0 0 0
145 0 0 0
161 0 0 0
170 0 0 0
215 0 0 0
216 0 0 0
218 0 0 0
219 0 0 0
221 0 0 0
235 0 0 0
238 0 0 0
239 0 0 0
240 0 0 0
6 0 0 0
18 0 0 0
26 0 0 0
29 0 0 0
37 0 0 0
58 0 0 0
61 0 0 0
142 0 0 0
144 0 0 0
167 0 0 0
212 0 0 0
214 0 0 0
232 0 0 0
234 0 0 0
236 0 0 0
237 0 0 0
