LAMMPS data file via write_data, version 29 Aug 2024, timestep = 29, units = metal

255 atoms
2 atom types

0 14.07366598 xlo xhi
0 30.87896156 ylo yhi
0 8.12543494 zlo zhi

Masses

1 55.8
2 1

Atoms # atomic

14 1 1.079329147139 0.902152694031 6.045753512123 0 0 0
20 1 2.247060901237 1.447620940759 4.005640677281 0 0 0
119 1 2.237440846857 3.949773985681 8.079272231493 0 0 0
162 1 4.587104824764 3.214658141984 8.07013550492 0 0 0
164 1 3.421490453712 2.325684082681 1.974229451972 0 0 0
165 1 1.070663709521 3.190509129156 1.981539337007 0 0 0
171 1 4.587315085334 0.886498105049 3.986100225066 0 0 0
207 1 4.584790269657 3.203262831221 4.005018187711 0 0 0
209 1 3.419782332872 2.325603972424 6.033469560835 0 0 0
210 1 1.058953012059 3.203476541501 6.031357841548 0 0 0
211 1 2.241364162722 3.949915546972 4.003325090832 0 0 0
227 1 4.581446648094 0.89972002917 8.05558374474 0 0 0
230 1 1.067962269337 0.889360927156 1.961895935531 0 0 0
231 1 2.241717411738 1.452284502103 8.060533759706 0 0 0
16 1 8.099442762691 3.194923403306 6.018720921366 0 0 0
21 1 9.276750802069 3.959946744273 3.975158920647 0 0 0
25 1 6.927158036911 2.318946611101 3.990311881758 0 0 0
124 1 8.100241724709 3.2110041689 1.965609746824 0 0 0
125 1 9.280263166888 3.968671547303 8.060869908949 0 0 0
159 1 8.099002538419 0.908472199057 6.036117152556 0 0 0
160 1 9.264243253639 1.457169734995 3.993319511501 0 0 0
163 1 5.76063647735 3.953557578155 1.971075401891 0 0 0
168 1 8.089620751204 0.890745690156 1.972899887052 0 0 0
169 1 9.281760464211 1.44531640255 8.081593424492 0 0 0
172 1 5.764856747568 1.450883070199 6.023114100275 0 0 0
206 1 6.945790726249 2.326993711217 8.069344981355 0 0 0
208 1 5.759145090966 3.95970964777 6.036565026529 0 0 0
228 1 5.756335142817 1.440309262746 1.946999900672 0 0 0
1 1 11.613828981964 3.202380125665 3.9975284868 0 0 0
7 1 12.789802415598 3.952678604443 6.030413259736 0 0 0
11 1 10.453954696319 2.334276529635 6.043213419906 0 0 0
33 1 11.607288527173 0.903787241806 4.025489571007 0 0 0
36 1 12.803473856204 1.444425984515 6.043798776239 0 0 0
120 1 13.979577330511 2.328963876183 8.075261435552 0 0 0
121 1 11.631847215045 3.19842238046 8.066944809128 0 0 0
122 1 12.797953319986 3.95213076971 1.961256951327 0 0 0
123 1 10.459050067087 2.340758743069 1.966786066041 0 0 0
166 1 12.803155087669 1.439434767247 1.991632508526 0 0 0
213 1 13.96059209584 2.320754814027 4.008617674135 0 0 0
233 1 11.621588075492 0.886538657756 8.082076725362 0 0 0
12 1 3.417685358575902 4.794564259219983 1.9724581560139773 0 0 0
19 1 1.072457054929852 5.595740791371981 1.9637006958277843 0 0 0
28 1 2.2442119254085333 6.4054049654037 8.056684409884546 0 0 0
31 1 4.587569193772688 5.605124572987524 8.063461308008064 0 0 0
72 1 4.593080987008505 5.599151211006274 4.002025747770276 0 0 0
74 1 3.414021567989459 4.797895246874742 6.036135899677049 0 0 0
75 1 1.070859071444464 5.598877800036002 6.030778045286514 0 0 0
76 1 2.2465653040911433 6.388595510508478 3.996379099993456 0 0 0
106 1 4.594557879016091 8.024272476784242 3.99563020299012 0 0 0
108 1 3.4217722093499914 7.230177717650584 6.0255261482848175 0 0 0
109 1 1.0796414605519127 8.023640127281242 6.010626016840578 0 0 0
110 1 2.2503502022856807 8.787772234720444 3.9757030025396407 0 0 0
201 1 4.592083489804099 8.02860741215012 8.056954292107353 0 0 0
203 1 3.4184413544952297 7.214024826534806 1.9632996492079198 0 0 0
204 1 1.0671145883932445 8.022786099305945 1.9471799657537585 0 0 0
205 1 2.2445620153042016 8.837956343951516 8.042588470316673 0 0 0
5 1 5.763018371938398 6.399495229311266 1.9691910689512593 0 0 0
69 1 8.10912732622098 5.604721022388632 1.9650404513843782 0 0 0
70 1 9.28239555761296 6.408891221703102 8.060237741445517 0 0 0
71 1 6.934918197715002 4.7965043458737595 8.062380230369069 0 0 0
73 1 5.7650455419459155 6.40693930388212 6.032556156914748 0 0 0
81 1 8.108614684232029 5.593415253207619 6.030380217535227 0 0 0
107 1 5.767772792162904 8.841337440904645 6.030432376331062 0 0 0
130 1 8.11032040088947 8.029930133718286 1.9621557051358247 0 0 0
131 1 9.28384807985451 8.841432719852646 8.075716179691554 0 0 0
132 1 6.933777942191852 7.2175947200654935 8.0702137704951 0 0 0
188 1 8.109514736628025 7.997763203361134 6.070595509796091 0 0 0
189 1 9.325233101611209 8.814674425515484 3.9570085314895156 0 0 0
190 1 6.939418078797097 7.221069616636068 3.9942235834822895 0 0 0
199 1 9.287996810828547 6.398745134690239 3.9929226913569145 0 0 0
200 1 6.93473581350845 4.797750838991335 3.999443947108973 0 0 0
202 1 5.757393472999588 8.827857615176969 1.962631860823899 0 0 0
32 1 13.97165302936944 4.79581618590816 8.061067715389838 0 0 0
35 1 11.628919438807204 5.603237938294036 8.05573205443105 0 0 0
38 1 12.801918688195205 6.400560570085293 1.9567900835164602 0 0 0
68 1 10.456793681840608 4.804747128839666 1.959854306503102 0 0 0
77 1 13.96940823769589 4.789770355096733 3.996827487080192 0 0 0
78 1 11.630038752291993 5.597913542383977 3.9917996438678074 0 0 0
79 1 12.802099735732018 6.399727908658479 6.02407906403723 0 0 0
80 1 10.451271007220388 4.795203726202677 6.025761348515875 0 0 0
111 1 13.975215053784671 7.210428330060712 3.9853173410911777 0 0 0
112 1 11.637018539409508 8.024550891779368 3.986484941820544 0 0 0
126 1 13.97126197399666 7.223019599739144 8.049242835724574 0 0 0
127 1 11.631888623402153 8.03933229312324 8.052740583295432 0 0 0
128 1 12.79606021596681 8.823914712928108 1.9480124020308365 0 0 0
129 1 10.459241949542585 7.22513542375587 1.957690585544213 0 0 0
186 1 12.804832321650991 8.822059074706337 6.0140852855899505 0 0 0
187 1 10.461799185417334 7.212187244814921 6.029291634094254 0 0 0
51 1 4.5957674368533885 10.516044892881677 3.9469858561877293 0 0 0
53 1 3.4335649613256587 9.68579356915803 5.999097108600534 0 0 0
54 1 1.1080901644889787 10.492583495117826 5.918841178209905 0 0 0
64 1 3.4093827548683646 12.251899227733727 5.58887222032597 0 0 0
152 1 3.410156774098125 9.634890841502703 1.942827588412425 0 0 0
153 1 1.0258880186215074 10.525006458572141 1.9077698460415067 0 0 0
154 1 2.235399822037025 11.292728768634111 8.048854167901892 0 0 0
177 1 2.2065195820447054 11.15004480930586 3.8908871726385854 0 0 0
191 1 4.613754642730218 10.510346861825289 8.105222307035504 0 0 -1
195 1 3.3891363439037776 12.001804424156079 2.0101200045986705 0 0 0
242 2 1.5484904349499604 12.143970255450895 5.143304878840487 0 0 0
243 2 1.483921227748919 12.092355274134048 2.609227813238099 0 0 0
254 2 3.6325702774244126 11.275878391635446 6.941314490856628 0 0 0
3 1 6.897432670847501 9.680053610608734 3.96418073038394 0 0 0
40 1 6.9728372572047554 11.990817237789726 8.051566661487882 0 0 0
48 1 8.099206426807308 10.556644465041142 1.9774811841148219 0 0 0
49 1 9.300126797342509 11.282974436844382 8.113083385274054 0 0 0
50 1 6.930219317008149 9.654179226372333 8.081128389847498 0 0 0
52 1 5.694733999483221 11.273796895130815 6.009518946305695 0 0 0
98 1 6.880651615931795 12.01096291049782 3.984850664692075 0 0 0
184 1 8.094850130976402 10.66415387692536 6.111649441920502 0 0 0
185 1 9.26773126479479 11.258962076546132 4.0134288612966715 0 0 0
192 1 5.754162529916437 11.265039875579713 1.955149722722474 0 0 0
241 2 8.158093868067288 9.34508315863943 5.0445198300986585 0 0 0
34 1 10.44830245697619 11.986389212398056 2.0527059474821012 0 0 0
66 1 14.040171826689008 12.003487726294987 3.9591735742789487 0 0 0
96 1 10.495865103940034 11.960398526226841 6.045964321915604 0 0 0
155 1 13.968512736576912 9.664740741385616 8.04136463721957 0 0 0
156 1 11.628395998716355 10.549982809868181 8.083781904135417 0 0 0
157 1 12.76124848698896 11.227996401525878 2.0312332449231834 0 0 0
158 1 10.456484029160414 9.651328517752848 1.9641282942866416 0 0 0
179 1 13.955469812395599 9.621126082741975 3.9715480727180865 0 0 0
181 1 11.631212893600566 10.541861724542663 4.020989365532932 0 0 0
182 1 12.834322401234285 11.243307659159768 6.035101275490034 0 0 0
183 1 10.469575497721712 9.625037851987228 6.044497646668816 0 0 0
197 1 13.680749620125871 12.20977371602954 0.0708748465966104 0 0 0
244 2 0.6129279020237272 11.138805267870536 7.401885589725225 1 0 0
248 2 11.945405811143297 12.153446220620978 7.256390974625777 0 0 0
249 2 8.7655177445628 12.182939446338622 6.718530837168828 0 0 0
252 2 10.786233265096069 12.113567014857814 3.933663012179445 0 0 0
63 1 2.1442246274094057 19.283379339549374 4.035523035673525 0 0 0
65 1 4.537101043846306 19.9600516373823 4.09181945412596 0 0 0
67 1 1.0035106693531144 20.019448377206025 6.102326525632761 0 0 0
89 1 2.231623386969385 21.640830228945134 8.0790158355593 0 0 0
90 1 3.3253747492547823 20.68403187126495 1.9291786374208826 0 0 0
174 1 2.2433579825962386 21.666193262067694 3.9376834207007985 0 0 0
175 1 3.500119830256992 20.680489356353107 6.132590871583423 0 0 0
194 1 2.256163720304757 19.29296604813709 8.095895424787058 0 0 -1
196 1 4.624920794591765 20.00723792143944 8.120630105412536 0 0 0
198 1 1.0234765946096365 20.007346629759194 1.9354121635020964 0 0 0
246 2 2.0719894884710564 21.300759182701338 5.571232054881539 0 0 0
24 1 9.278656525858764 19.32130346548808 8.091833203178787 0 0 0
41 1 8.134653370497452 20.07290449361812 1.9643811802535165 0 0 0
43 1 9.265183807062916 21.654829046506393 4.006842205264453 0 0 0
46 1 6.925132748143516 20.702274467745788 4.027621086459541 0 0 0
62 1 5.751126507294973 19.2815046146181 6.087370910921438 0 0 0
88 1 5.809393800696855 21.68113816502547 1.9360755254641406 0 0 0
95 1 9.216499779441152 19.30492282514646 3.9850318398360294 0 0 0
99 1 8.075589927679749 20.00786200543716 6.075737780074151 0 0 0
101 1 9.258167840580516 21.656032426194084 8.077489122195622 0 0 0
104 1 6.94483263399439 20.747080501981323 8.077331929589347 0 0 0
173 1 5.773602243006622 21.642439186443017 6.06902162247475 0 0 0
193 1 5.810940325680487 19.31246052157765 2.0339758170621103 0 0 0
247 2 4.536228838225426 21.24856651649434 2.932055514005555 0 0 0
251 2 6.1232652535129795 19.18545402571318 3.8379294440702068 0 0 0
253 2 7.294997526960883 19.194068223640663 3.273476498499681 0 0 0
9 1 12.751378662659864 19.30476498719748 1.9367326682297876 0 0 0
39 1 11.602295216220465 20.04823781258887 8.075504758896747 0 0 0
42 1 12.748251067121684 21.66044404183243 6.123291424466765 0 0 0
44 1 10.340165996505021 20.654793112438927 6.103892868797721 0 0 0
92 1 13.93589503832562 20.75849628830688 8.093124461820235 0 0 0
94 1 12.75611525698503 19.283834155531864 6.025113525949568 0 0 0
97 1 11.559585762456223 20.002602541632363 3.940949084310666 0 0 0
100 1 12.780181842614201 21.65422342967411 1.9512042580350393 0 0 0
102 1 10.440918640687558 20.770352808530095 1.9568422313655667 0 0 0
178 1 13.92607357304253 20.652424118567488 3.939286153884254 0 0 0
250 2 0.3126349157457422 19.132018809921473 4.795848719350094 1 0 0
255 2 11.434690683015603 21.355235314348665 5.085820298137886 0 0 0
91 1 4.586214713134929 22.467233066987756 8.07077724353438 0 0 0
93 1 1.0530959872562469 22.47010512723609 1.9538560530325477 0 0 0
114 1 2.236152638842058 24.09515535192937 8.0710626325572 0 0 0
115 1 3.4127343338130274 23.277595136655485 1.9693469127916816 0 0 0
116 1 4.582975688586067 24.893514861845993 8.065200767419464 0 0 0
118 1 1.0684642964126103 24.903259979218493 1.9637886413155459 0 0 0
134 1 2.248744191636291 24.11132692331407 3.9948706397228606 0 0 0
135 1 3.4176042182007085 23.28850573716944 6.048792237976038 0 0 0
136 1 4.591105091555733 24.899960492917927 4.007764615758857 0 0 0
138 1 1.0666888357684947 24.92578399874078 6.034141656649436 0 0 0
176 1 4.602677533089412 22.501478854120954 4.056648032215216 0 0 0
180 1 1.0571682613325233 22.541847958442972 6.086636975978802 0 0 0
222 1 3.41342988319845 25.71486699953153 1.9680122718574833 0 0 0
224 1 3.4131881864297355 25.721904941633568 6.0326939334430465 0 0 0
23 1 6.932909373011344 25.712506575994798 4.004279392930129 0 0 0
47 1 8.096052512778618 22.45910009802234 6.037462931246646 0 0 0
83 1 9.275013684001223 24.098816113324762 4.00116666546689 0 0 0
86 1 6.941337841422868 23.262775718824006 4.011943073870676 0 0 0
87 1 8.103407860952517 24.89162392112473 6.031330457731856 0 0 0
105 1 8.113700895287822 22.482546413986967 1.9790703253483537 0 0 0
113 1 5.7650798141816155 24.09701202476829 1.9737323025483657 0 0 0
133 1 5.761659866493211 24.08788900136543 6.039474114923481 0 0 0
147 1 9.268424986393562 24.095825088907958 8.05971222374923 0 0 0
150 1 6.931772642104886 23.27966411503481 8.067313963152253 0 0 0
151 1 8.103363527914167 24.897325662203375 1.9708165460432563 0 0 0
217 1 6.928783679037372 25.71215094416579 8.060126189502794 0 0 0
15 1 10.447684414028997 25.722438177138205 6.027522448623479 0 0 0
45 1 11.623336519419123 22.53474965336419 3.930588376545902 0 0 0
56 1 13.966072832273923 25.734076911956343 8.062123312684186 0 0 0
60 1 10.447075792828231 25.73220011620914 1.9644182369118681 0 0 0
82 1 12.788313407073582 24.123676167610437 6.035315106407227 0 0 0
84 1 10.438436576501065 23.280458081015745 6.032432427030774 0 0 0
85 1 11.621973162118193 24.92504603976507 3.991595153134952 0 0 0
103 1 11.595165921116722 22.487413083231583 8.084378695833061 0 0 0
117 1 13.950603495748997 23.3025232102285 8.076778251856958 0 0 0
137 1 13.969754437124685 23.34167766949136 3.951503213148105 0 0 0
146 1 12.787840118348274 24.115844056707548 1.9564627907012646 0 0 0
148 1 10.439303794573895 23.303889582667964 1.9619397693901997 0 0 0
149 1 11.614116445588548 24.907162394010342 8.057697522216193 0 0 0
226 1 13.970892513391835 25.745786561642927 3.9919788047704685 0 0 0
245 2 13.939405263579904 22.013657313245762 4.984739308161114 0 0 0
2 1 1.066082449772 27.321114065831 6.036100657923 0 0 0
4 1 3.419439639106 30.690036696864 6.03041277221 0 0 0
13 1 2.247021354236 29.068954909106 8.057648092741 0 0 0
17 1 3.400453841489 28.181013824287 1.965359727191 0 0 0
22 1 4.592065229076 29.608802500838 8.058508576301 0 0 0
30 1 1.054964675857 29.609046314661 1.974453145196 0 0 0
55 1 4.581617502399 27.300972307342 8.05435054748 0 0 0
57 1 1.06906226707 27.306485485223 1.954075529418 0 0 0
139 1 2.234472288491 29.078029261545 3.994954999046 0 0 0
140 1 3.405879380461 28.184956393325 6.03398341334 0 0 0
141 1 4.583380369799 29.599158420179 3.995338194558 0 0 0
143 1 1.058353614625 29.622838713371 6.041807963425 0 0 0
220 1 2.240418990990534 26.53288568393351 8.060136066927951 0 0 0
223 1 2.2412982033146815 26.541395548029058 3.9982123289674165 0 0 0
225 1 4.58296618181 27.304660613393 3.990409224469 0 0 0
229 1 3.415936562907 30.689983704676 1.968039008108 0 0 0
8 1 5.75182115519 29.034256718998 1.954590194467 0 0 0
10 1 9.275802613145558 26.53635762795478 4.002248602270091 0 0 0
27 1 8.10137761029 27.310878114676 6.033652708138 0 0 0
59 1 9.276105941524055 26.532196529888292 8.05974570394937 0 0 0
145 1 9.269557329177 29.069266891284 3.998627451876 0 0 0
161 1 6.916983902301 30.676352770427 4.000041846336 0 0 0
170 1 6.933701587909 30.681561429819 8.067255281997 0 0 0
215 1 6.930608759073 28.182839691276 4.006510830109 0 0 0
216 1 8.097593905191 29.63026284429 6.028677016798 0 0 0
218 1 5.75591321535774 26.524035852799425 1.9670776422576073 0 0 0
219 1 8.101075026471 27.291278717549 1.969610792243 0 0 0
221 1 5.75747058525515 26.525890888677935 6.027580011073067 0 0 0
235 1 9.283465770318 29.056460445821 8.06095286964 0 0 0
238 1 6.932970038751 28.164424781508 8.052119140536 0 0 0
239 1 8.095130028488 29.5956432717 1.969384417626 0 0 0
240 1 5.754531039575 29.049111200576 6.028449667129 0 0 0
6 1 12.794476419087488 26.547913034831293 6.026299947461287 0 0 0
18 1 11.625525042814 27.325785339654 3.997818402319 0 0 0
26 1 13.973545357272 28.195504824237 8.058278789001 0 0 0
29 1 13.976420466495 30.6987182105 4.017007673236 0 0 0
37 1 10.442898002115 30.703703208028 6.050466101879 0 0 0
58 1 12.795470138276876 26.548982159815747 1.9654518699507741 0 0 0
61 1 11.63148214415 27.302444893076 8.060213861332 0 0 0
142 1 13.976676607216 28.197667303576 3.998286183608 0 0 0
144 1 12.788388856586 29.076700476209 6.031438527117 0 0 0
167 1 10.450046157803 30.692959726058 1.980672678116 0 0 0
212 1 10.446648493362 28.194469859436 6.031054194044 0 0 0
214 1 11.612362365233 29.613596676731 4.000269927295 0 0 0
232 1 13.968673194846 30.702538126258 8.082476171744 0 0 0
234 1 12.797802168814 29.081848679724 1.975369450494 0 0 0
236 1 10.448347466319 28.182556817483 1.973493531329 0 0 0
237 1 11.619632680341 29.595189977021 8.071670968361 0 0 0

Velocities

14 0 0 0
20 0 0 0
119 0 0 0
162 0 0 0
164 0 0 0
165 0 0 0
171 0 0 0
207 0 0 0
209 0 0 0
210 0 0 0
211 0 0 0
227 0 0 0
230 0 0 0
231 0 0 0
16 0 0 0
21 0 0 0
25 0 0 0
124 0 0 0
125 0 0 0
159 0 0 0
160 0 0 0
163 0 0 0
168 0 0 0
169 0 0 0
172 0 0 0
206 0 0 0
208 0 0 0
228 0 0 0
1 0 0 0
7 0 0 0
11 0 0 0
33 0 0 0
36 0 0 0
120 0 0 0
121 0 0 0
122 0 0 0
123 0 0 0
166 0 0 0
213 0 0 0
233 0 0 0
12 0 0 0
19 0 0 0
28 0 0 0
31 0 0 0
72 0 0 0
74 0 0 0
75 0 0 0
76 0 0 0
106 0 0 0
108 0 0 0
109 0 0 0
110 0 0 0
201 0 0 0
203 0 0 0
204 0 0 0
205 0 0 0
5 0 0 0
69 0 0 0
70 0 0 0
71 0 0 0
73 0 0 0
81 0 0 0
107 0 0 0
130 0 0 0
131 0 0 0
132 0 0 0
188 0 0 0
189 0 0 0
190 0 0 0
199 0 0 0
200 0 0 0
202 0 0 0
32 0 0 0
35 0 0 0
38 0 0 0
68 0 0 0
77 0 0 0
78 0 0 0
79 0 0 0
80 0 0 0
111 0 0 0
112 0 0 0
126 0 0 0
127 0 0 0
128 0 0 0
129 0 0 0
186 0 0 0
187 0 0 0
51 0 0 0
53 0 0 0
54 0 0 0
64 0 0 0
152 0 0 0
153 0 0 0
154 0 0 0
177 0 0 0
191 0 0 0
195 0 0 0
242 0 0 0
243 0 0 0
254 0 0 0
3 0 0 0
40 0 0 0
48 0 0 0
49 0 0 0
50 0 0 0
52 0 0 0
98 0 0 0
184 0 0 0
185 0 0 0
192 0 0 0
241 0 0 0
34 0 0 0
66 0 0 0
96 0 0 0
155 0 0 0
156 0 0 0
157 0 0 0
158 0 0 0
179 0 0 0
181 0 0 0
182 0 0 0
183 0 0 0
197 0 0 0
244 0 0 0
248 0 0 0
249 0 0 0
252 0 0 0
63 0 0 0
65 0 0 0
67 0 0 0
89 0 0 0
90 0 0 0
174 0 0 0
175 0 0 0
194 0 0 0
196 0 0 0
198 0 0 0
246 0 0 0
24 0 0 0
41 0 0 0
43 0 0 0
46 0 0 0
62 0 0 0
88 0 0 0
95 0 0 0
99 0 0 0
101 0 0 0
104 0 0 0
173 0 0 0
193 0 0 0
247 0 0 0
251 0 0 0
253 0 0 0
9 0 0 0
39 0 0 0
42 0 0 0
44 0 0 0
92 0 0 0
94 0 0 0
97 0 0 0
100 0 0 0
102 0 0 0
178 0 0 0
250 0 0 0
255 0 0 0
91 0 0 0
93 0 0 0
114 0 0 0
115 0 0 0
116 0 0 0
118 0 0 0
134 0 0 0
135 0 0 0
136 0 0 0
138 0 0 0
176 0 0 0
180 0 0 0
222 0 0 0
224 0 0 0
23 0 0 0
47 0 0 0
83 0 0 0
86 0 0 0
87 0 0 0
105 0 0 0
113 0 0 0
133 0 0 0
147 0 0 0
150 0 0 0
151 0 0 0
217 0 0 0
15 0 0 0
45 0 0 0
56 0 0 0
60 0 0 0
82 0 0 0
84 0 0 0
85 0 0 0
103 0 0 0
117 0 0 0
137 0 0 0
146 0 0 0
148 0 0 0
149 0 0 0
226 0 0 0
245 0 0 0
2 0 0 0
4 0 0 0
13 0 0 0
17 0 0 0
22 0 0 0
30 0 0 0
55 0 0 0
57 0 0 0
139 0 0 0
140 0 0 0
141 0 0 0
143 0 0 0
220 0 0 0
223 0 0 0
225 0 0 0
229 0 0 0
8 0 0 0
10 0 0 0
27 0 0 0
59 0 0 0
145 0 0 0
161 0 0 0
170 0 0 0
215 0 0 0
216 0 0 0
218 0 0 0
219 0 0 0
221 0 0 0
235 0 0 0
238 0 0 0
239 0 0 0
240 0 0 0
6 0 0 0
18 0 0 0
26 0 0 0
29 0 0 0
37 0 0 0
58 0 0 0
61 0 0 0
142 0 0 0
144 0 0 0
167 0 0 0
212 0 0 0
214 0 0 0
232 0 0 0
234 0 0 0
236 0 0 0
237 0 0 0
