LAMMPS data file via write_data, version 29 Aug 2024, timestep = 20, units = metal

256 atoms
2 atom types

0 14.06520962 xlo xhi
0 25.86401269 ylo yhi
0 8.12055266 zlo zhi

Masses

1 55.8
2 1

Atoms # atomic

14 1 1.057837382915 0.882609793183 6.031986631378 0 0 0
20 1 2.25573232562 1.447644730203 4.014404140079 0 0 0
119 1 2.244360603642 3.952166145731 8.064109215832 0 0 0
162 1 4.60370373332 3.201606388904 8.068442342731 0 0 0
164 1 3.418738515862 2.324412972245 1.977215467643 0 0 0
165 1 1.074861068727 3.19086264902 1.957023713454 0 0 0
171 1 4.591949718945 0.910111628979 4.018430797321 0 0 0
207 1 4.594340382624 3.209464162834 4.011853880516 0 0 0
209 1 3.426008119455 2.326209894442 6.036804230449 0 0 0
210 1 1.081883405934 3.179405063333 6.024229960683 0 0 0
211 1 2.253355164542 3.953160954879 4.005300432108 0 0 0
227 1 4.593113052432 0.910667836943 8.072870642508 0 0 0
230 1 1.069909552332 0.885056909312 1.980914216969 0 0 0
231 1 2.245764874171 1.436182171713 8.062433620996 0 0 0
16 1 8.109115727815 3.202888874678 6.027256896687 0 0 0
21 1 9.274888966746 3.965174251251 4.007438898446 0 0 0
25 1 6.930309524998 2.323694650918 4.010853915662 0 0 0
124 1 8.122515793672 3.208139656878 1.966794037592 0 0 0
125 1 9.297242101135 3.958866499871 8.056910427104 0 0 0
159 1 8.11083379317 0.898923817829 6.045176357831 0 0 0
160 1 9.274785306151 1.454175263136 4.000623562215 0 0 0
163 1 5.759295448311 3.956795327614 1.977751830146 0 0 0
168 1 8.0965370702 0.910650183494 1.979660403638 0 0 0
169 1 9.278640861412 1.456335448559 8.081283859885 0 0 0
172 1 5.742404960035 1.435417106043 6.045955118831 0 0 0
206 1 6.93382892175 2.31972088441 8.074350450819 0 0 0
208 1 5.771856665066 3.95392726375 6.049292584768 0 0 0
228 1 5.752460178392 1.422503732412 1.988217192387 0 0 0
1 1 11.630877262625 3.217544718318 3.977814716315 0 0 0
7 1 12.794040842563 3.956175965058 6.021759444947 0 0 0
11 1 10.452361787691 2.343884726503 6.028276756895 0 0 0
33 1 11.607959972679 0.912363562609 4.014394639032 0 0 0
36 1 12.802098379198 1.473576403598 6.01991250645 0 0 0
120 1 13.966959911241 2.329760724094 8.068561877266 0 0 0
121 1 11.629189718775 3.20945521179 8.058433193139 0 0 0
122 1 12.801934519506 3.956410929978 1.96886697107 0 0 0
123 1 10.462057921247 2.332371196787 1.958851649858 0 0 0
166 1 12.796014894733 1.441792984817 1.969021342776 0 0 0
213 1 13.964454616104 2.329442216092 3.985067750334 0 0 0
233 1 11.607715519335 0.915017298683 8.049571315227 0 0 0
12 1 3.421233279333904 4.844408493678438 1.972737907654501 0 0 0
19 1 1.0769931153798336 5.669210466894045 1.9696024417559705 0 0 0
28 1 2.2466191796458252 6.483649296526544 8.065021115992266 0 0 0
31 1 4.595231154835478 5.673254877429459 8.066714377126944 0 0 0
72 1 4.595250110473538 5.669827268232411 4.00273698467385 0 0 0
74 1 3.4248199566382262 4.84048087246082 6.038195947536904 0 0 0
75 1 1.0789600278041342 5.65852276341043 6.030457263773769 0 0 0
76 1 2.2508879309044905 6.480623079404767 4.0003682336366175 0 0 0
106 1 4.593638954271434 8.177192068388065 3.9976768514331136 0 0 0
108 1 3.426217776748183 7.310438863308775 6.036077886140433 0 0 0
109 1 1.0904261282092704 8.162648755032412 6.03190735302238 0 0 0
201 1 4.58563043913475 8.188476390515058 8.07153439663519 0 0 0
203 1 3.419135413146162 7.32856638350195 1.970998122187482 0 0 0
204 1 1.0790229955865163 8.1836555130952 1.9751323407610006 0 0 0
5 1 5.765133687224757 6.49696030619147 1.9724611482446535 0 0 0
69 1 8.112848717145912 5.681923805095248 1.9715766422842953 0 0 0
70 1 9.283653366443888 6.503468920404061 8.059133514064483 0 0 0
71 1 6.943600785326917 4.850131187449154 8.068199533881302 0 0 0
73 1 5.768622672936673 6.485164922714108 6.033540121717192 0 0 0
81 1 8.11513092000185 5.6749118530139615 6.0286223593859924 0 0 0
130 1 8.103912910035918 8.206658141110381 1.9777918534417473 0 0 0
132 1 6.932363882764108 7.334502143974371 8.070667083823615 0 0 0
188 1 8.146889071261986 8.162275824219842 6.008068445297419 0 0 0
190 1 6.943305852621767 7.330936485224557 3.9962379241831694 0 0 0
199 1 9.289313474512353 6.512031798221517 3.9967538897553725 0 0 0
200 1 6.936975696954482 4.847365018840034 4.001440653794479 0 0 0
32 1 13.970079431762237 4.847035139518607 8.056165465030452 0 0 0
35 1 11.627845650284808 5.678568943282219 8.058209723364591 0 0 0
38 1 12.797184446145678 6.491073072916703 1.9674142114913427 0 0 0
68 1 10.453988687866252 4.857165495522581 1.9698910610354983 0 0 0
77 1 13.97259878190714 4.8461006241509095 3.9967431395899546 0 0 0
78 1 11.628205801372431 5.681959754744493 3.994704112031724 0 0 0
79 1 12.802504098616385 6.485342883999758 6.026967965636607 0 0 0
80 1 10.457666866964159 4.8563961234884 6.026137466137521 0 0 0
111 1 13.975813920265143 7.325942102255381 3.9970752187663727 0 0 0
112 1 11.62953285773222 8.201135274902141 3.9900548581907302 0 0 0
126 1 13.968939756982547 7.341584268310349 8.062820372595707 0 0 0
127 1 11.622774457340912 8.195085988085763 8.060647918033972 0 0 0
129 1 10.45281427096515 7.353716854422293 1.967163222422914 0 0 0
187 1 10.463924812103235 7.3508400630951405 6.0256517275515975 0 0 0
51 1 4.589709152637151 10.73238460613819 3.9732213916728987 0 0 0
53 1 3.4300458524907627 9.815932350445829 6.05419561653273 0 0 0
54 1 1.1579067708207729 10.659146415491639 6.057509852499522 0 0 0
64 1 3.3543561984890777 12.862413580105969 6.048750542876713 0 0 0
110 1 2.2590967196552416 8.986613061174495 3.99288285274599 0 0 0
152 1 3.421559121132893 9.873791311914317 1.9770100599953553 0 0 0
153 1 1.1148210610039044 10.769409084146266 1.9814010774767885 0 0 0
154 1 2.223991548002829 11.48352891992096 8.083758629999393 0 0 0
177 1 2.200862143958597 11.520400068672615 4.007448161561625 0 0 0
191 1 4.5743052754905325 10.763021417873947 8.078750942720257 0 0 0
195 1 3.3456437787381077 12.611717018150138 2.0674075255004842 0 0 0
205 1 2.235723986592741 9.001607918071937 8.078805993698255 0 0 0
243 2 3.4702088320431224 12.647864949102871 7.799215544619148 0 0 0
251 2 0.41502474166041853 11.445470007101394 4.710312254018055 0 0 0
252 2 3.484914306055653 11.345336068201814 5.194685793677008 0 0 0
3 1 6.938518906120707 9.88303516964061 4.000837104591062 0 0 0
40 1 6.9464450353263505 12.62786172282368 8.025528731448055 0 0 0
48 1 8.091230767642566 10.785050158548277 2.0008079071673084 0 0 0
49 1 9.233384584959008 11.536672316165115 8.10522229259993 0 0 0
50 1 6.910371962967593 9.921696688911837 8.112120086531517 0 0 0
52 1 5.74722745776773 11.511484271898128 6.023950134991893 0 0 0
98 1 6.920797055666401 12.741813283616548 3.9975318887682083 0 0 0
107 1 5.72180057670496 8.99097359927154 6.020556579481087 0 0 0
131 1 9.223748336563684 8.998238573909834 8.063889230995606 0 0 0
184 1 8.149478161451402 10.911198718456333 6.0065065196513014 0 0 0
185 1 9.285092832256232 11.537600077321759 3.9735907564059647 0 0 0
189 1 9.309070748627153 9.05639663112073 3.9961204617080672 0 0 0
192 1 5.747557681845105 11.478509712533556 1.9889619411773687 0 0 0
202 1 5.75427982869054 9.020680556305141 1.9813695576020676 0 0 0
242 2 8.60599090864155 12.73088395369464 5.078747880355406 0 0 0
247 2 7.262182678777989 9.54492155580299 6.473549329518657 0 0 0
254 2 5.327743719574706 12.777647680990466 4.832214784388312 0 0 0
256 2 6.985217048130644 12.727046535364208 2.181989673226502 0 0 0
34 1 10.4291175483831 12.812565162433874 2.1124993160829884 0 0 0
66 1 13.974974626123958 12.901946812487694 3.9174158019135996 0 0 0
96 1 10.450401638767657 12.806246823927603 5.90912026733648 0 0 0
128 1 12.824716906774167 8.980828088488542 2.0143940955559474 0 0 0
155 1 13.915747815163789 9.943809213540074 8.090988866443077 0 0 0
156 1 11.72608837984468 11.913100873012672 8.003186476917575 0 0 0
157 1 12.86823014563667 11.511053187591898 2.041733134686204 0 0 0
158 1 10.475345043105705 9.966230455988045 1.9211182481082592 0 0 0
179 1 13.986361854693936 9.862423579339167 3.980204229698979 0 0 0
181 1 11.607943486903707 10.791646487189407 3.9877959481709833 0 0 0
182 1 12.904705338163579 11.518369814146514 5.91749738040677 0 0 0
183 1 10.49519489511659 9.993083861788056 6.073513526871068 0 0 0
186 1 12.833694801270726 8.957812708634942 5.976296577724894 0 0 0
197 1 14.06151917057259 12.943150253731948 0.023784764667421854 0 0 1
244 2 12.2724681503235 12.752606100895603 3.16427430499496 0 0 0
245 2 0.1527761303620725 11.468939185075627 7.203286155699908 1 0 0
246 2 10.48698047990303 12.950807736937259 0.37423214004347793 0 0 0
248 2 10.412459603027164 10.237188654445784 0.0429018388611289 0 0 0
253 2 12.145742377782566 10.270143182212799 6.8805804879281665 0 0 0
255 2 12.349557500262376 10.265652780631017 0.9427664493428443 0 0 0
63 1 2.219929363066619 13.98847232454693 4.002055909115288 0 0 0
65 1 4.568365382281935 14.716422723551583 4.00267660910668 0 0 0
67 1 1.0640472179764504 14.695363820894649 6.043949904111099 0 0 0
89 1 2.2283541407533463 16.456857989941614 8.0576866834321 0 0 0
90 1 3.393605732501799 15.62778229585555 1.9982930537862558 0 0 0
174 1 2.2304668498779945 16.453677548501325 3.9967128291162917 0 0 0
175 1 3.398148555895803 15.610361676390259 6.013065689512126 0 0 0
194 1 2.2680134347524312 13.975407025476255 8.088640378790844 0 0 0
196 1 4.568239209963417 14.795257902084291 8.003825373865203 0 0 0
198 1 1.0524900922641875 14.701066994452711 1.9736629208173897 0 0 0
250 2 3.7222508910987417 14.107804962389343 1.238250546759128 0 0 0
24 1 9.225089703881808 13.983574691801964 8.028242527051512 0 0 0
41 1 8.097297669545824 14.687205264114722 1.972205123334299 0 0 0
43 1 9.259795403932701 16.44038089390278 3.982655709791528 0 0 0
46 1 6.9138008140627125 15.593791845342894 3.9884808897395225 0 0 0
62 1 5.749153152417434 13.986867609160452 6.016049529397087 0 0 0
88 1 5.750434434983752 16.46725206062699 1.9693680365281798 0 0 0
95 1 9.249930778363424 13.978471063452405 3.9986722118481954 0 0 0
99 1 8.07950278120837 14.697310265526715 6.013093800866423 0 0 0
101 1 9.254812526149967 16.438245887624923 8.06011424982917 0 0 0
104 1 6.944760836568012 15.610905268696845 8.03990239857724 0 0 0
173 1 5.751354720536576 16.46243758163515 6.017989180406181 0 0 0
193 1 5.7261420922172 13.969163618184645 1.9841895241230036 0 0 0
249 2 6.095479624879148 14.095683461155714 0.24619878313769883 0 0 0
9 1 12.796398398637947 13.938969999078143 1.963852663508961 0 0 0
39 1 11.613138206926106 14.58479952012442 8.11734066277772 0 0 0
42 1 12.828181392543616 16.440621056355745 5.986875670557346 0 0 0
44 1 10.390800079905484 15.549426413511204 5.97520417942411 0 0 0
92 1 13.968557422968495 15.562424893540463 8.07431532180144 0 0 0
94 1 12.7695757237402 13.939830057487518 6.041371390890496 0 0 0
97 1 11.610934540416553 14.679515960601321 3.984604091645604 0 0 0
100 1 12.780585232024041 16.419472995066513 1.9706267935335955 0 0 0
102 1 10.424660022583994 15.561925825875642 1.9782445644330215 0 0 0
178 1 13.962141336237819 15.5765984824627 3.995977761691074 0 0 0
241 2 11.638971721908366 15.914973157730751 7.080278260005903 0 0 0
91 1 4.575917461606152 17.295277783546613 8.050640691475953 0 0 0
93 1 1.0602924986910887 17.267870611909167 1.9661737230193488 0 0 0
114 1 2.2346710799080642 18.955523487846726 8.053985315200297 0 0 0
115 1 3.403775309796779 18.138621103319355 1.9646908740644666 0 0 0
116 1 4.581790274907343 19.80886601492443 8.056125279093573 0 0 0
118 1 1.0618337809167797 19.791129704271704 1.9628748493579622 0 0 0
134 1 2.232726470708688 18.95561400130642 3.993438147857959 0 0 0
135 1 3.407053570071299 18.137355190188355 6.020814357184811 0 0 0
136 1 4.580567358470168 19.804289192166433 3.994572557590866 0 0 0
138 1 1.0645061010806103 19.79505952534005 6.02184190287462 0 0 0
176 1 4.575948563760731 17.279142531604123 3.9942622727817043 0 0 0
180 1 1.0665953565492792 17.273329287207325 6.023467959966513 0 0 0
220 1 2.236418680484556 21.452565914943037 8.05419882806258 0 0 0
222 1 3.4080872416600334 20.627224627635577 1.9653778460123394 0 0 0
223 1 2.2347039745989434 21.45050632568845 3.9908189721065184 0 0 0
224 1 3.410689605366534 20.62620467704721 6.02348443317727 0 0 0
10 1 9.268518545382168 21.459236912367366 3.9966187940865074 0 0 0
23 1 6.92516816706639 20.63220459308145 3.9968470384020374 0 0 0
47 1 8.095367950458485 17.268859288680932 6.020246512109744 0 0 0
83 1 9.266678117077815 18.951434776342534 3.9941954421772023 0 0 0
86 1 6.924045622702311 18.135795049871586 3.9941678287225577 0 0 0
87 1 8.098047658691081 19.80086330982638 6.02678253227819 0 0 0
105 1 8.091598031351552 17.268785791928266 1.9604999451000256 0 0 0
113 1 5.753395136821909 18.964381662634537 1.9646781482408242 0 0 0
133 1 5.753064458311629 18.962410443297873 6.0245224823039525 0 0 0
147 1 9.270784416052141 18.953170034517754 8.057013744320535 0 0 0
150 1 6.925945987318866 18.138727653353477 8.052902490067058 0 0 0
151 1 8.096861895697456 19.80242451023765 1.9656794343333426 0 0 0
217 1 6.927505531794407 20.632042356643446 8.058097594847794 0 0 0
218 1 5.754311439200011 21.464701833289297 1.9699159912692084 0 0 0
6 1 12.786733412099556 21.454157633608432 6.025408690621296 0 0 0
15 1 10.440841681977897 20.625803450122024 6.025816798152974 0 0 0
45 1 11.612795303413911 17.256468196782794 3.987162995996805 0 0 0
56 1 13.957732508176425 20.618888610592485 8.052649760134859 0 0 0
58 1 12.783456529593701 21.443658960172698 1.9618265803393216 0 0 0
60 1 10.438918386063106 20.623237968502835 1.9670318087546355 0 0 0
82 1 12.787234416638128 18.946488577367536 6.0228427460482825 0 0 0
84 1 10.437252463111385 18.12942791525671 6.017076815264162 0 0 0
85 1 11.611712450695194 19.790042821405645 3.9941732690580274 0 0 0
103 1 11.606920923827557 17.292069604097012 8.090175815820034 0 0 0
117 1 13.958172122321129 18.11663511781053 8.057913221399264 0 0 0
137 1 13.954732150496412 18.114562515012857 3.9926186784391615 0 0 0
146 1 12.782370350073796 18.936541296677166 1.9644710991027647 0 0 0
148 1 10.436568434548041 18.120548498113425 1.9693106946900079 0 0 0
149 1 11.612137724893648 19.797169176170538 8.05723587877893 0 0 0
226 1 13.955035876198629 20.612632614691165 3.992909363508351 0 0 0
2 1 1.076727381391 22.286469888427 6.014516399208 0 0 0
4 1 3.40994705659 25.668465186677 6.018819642473 0 0 0
13 1 2.231707400416 24.019436872092 8.061255166394 0 0 0
17 1 3.400807342726 23.160067222931 1.978711111032 0 0 0
22 1 4.573483505235 24.617418863688 8.061385988497 0 0 0
30 1 1.048241393652 24.592818409533 1.955998087653 0 0 0
55 1 4.583388647805 22.308692099769 8.068630089909 0 0 0
57 1 1.05661244381 22.286834146213 1.962799781355 0 0 0
139 1 2.215835795925 24.036208145932 4.004391742266 0 0 0
140 1 3.405626364846 23.156368701043 6.018140358243 0 0 0
141 1 4.577589421227 24.601967620282 3.996477126821 0 0 0
143 1 1.058017558251 24.587563649091 6.048239430294 0 0 0
225 1 4.575138277146 22.308764702686 3.997607182929 0 0 0
229 1 3.394482639917 25.667230937087 1.985170036207 0 0 0
8 1 5.764516735426 24.055935750881 1.957580620955 0 0 0
27 1 8.098971336029 22.303884394275 6.036138669953 0 0 0
59 1 9.271696303663798 21.464809551988836 8.058054432494053 0 0 0
145 1 9.278891784752 24.040725439758 4.00373706331 0 0 0
161 1 6.939146555551 25.677497536567 4.006002941119 0 0 0
170 1 6.937718936774 25.680692313558 8.054253869507 0 0 0
215 1 6.92729760101 23.169423550906 3.993871809911 0 0 0
216 1 8.100270680094 24.600166222563 6.027167976635 0 0 0
219 1 8.100162096675 22.313224312002 1.958446921513 0 0 0
221 1 5.753714942315486 21.46639894598156 6.028343279663437 0 0 0
235 1 9.283640762128 24.086751710928 8.076086706183 0 0 0
238 1 6.935354434385 23.172930868536 8.07316631183 0 0 0
239 1 8.098209564276 24.614094047911 1.995625734989 0 0 0
240 1 5.744090534756 24.055448167592 6.033969020693 0 0 0
18 1 11.617012904198 22.289855621035 3.995117746306 0 0 0
26 1 13.958898717652 23.169825850631 8.04507131097 0 0 0
29 1 13.950212044191 25.679561746901 3.992627010394 0 0 0
37 1 10.444634783482 25.696639096736 6.03736714716 0 0 0
61 1 11.60650605196 22.30103274066 8.055540246254 0 0 0
142 1 13.957838200847 23.159328015833 3.993168326434 0 0 0
144 1 12.776089696829 24.04713687407 6.016990569192 0 0 0
167 1 10.442632460241 25.707563597992 1.981290523379 0 0 0
212 1 10.437962810647 23.18024660699 6.034886237116 0 0 0
214 1 11.622113933771 24.599369330956 3.997829767278 0 0 0
232 1 13.943125850932 25.697755988187 8.066013891458 0 0 0
234 1 12.783040582771 24.017976359987 1.975268646348 0 0 0
236 1 10.450743022716 23.177436476275 1.967506534883 0 0 0
237 1 11.635301333659 24.610247087868 8.073659229376 0 0 0

Velocities

14 0 0 0
20 0 0 0
119 0 0 0
162 0 0 0
164 0 0 0
165 0 0 0
171 0 0 0
207 0 0 0
209 0 0 0
210 0 0 0
211 0 0 0
227 0 0 0
230 0 0 0
231 0 0 0
16 0 0 0
21 0 0 0
25 0 0 0
124 0 0 0
125 0 0 0
159 0 0 0
160 0 0 0
163 0 0 0
168 0 0 0
169 0 0 0
172 0 0 0
206 0 0 0
208 0 0 0
228 0 0 0
1 0 0 0
7 0 0 0
11 0 0 0
33 0 0 0
36 0 0 0
120 0 0 0
121 0 0 0
122 0 0 0
123 0 0 0
166 0 0 0
213 0 0 0
233 0 0 0
12 0 0 0
19 0 0 0
28 0 0 0
31 0 0 0
72 0 0 0
74 0 0 0
75 0 0 0
76 0 0 0
106 0 0 0
108 0 0 0
109 0 0 0
201 0 0 0
203 0 0 0
204 0 0 0
5 0 0 0
69 0 0 0
70 0 0 0
71 0 0 0
73 0 0 0
81 0 0 0
130 0 0 0
132 0 0 0
188 0 0 0
190 0 0 0
199 0 0 0
200 0 0 0
32 0 0 0
35 0 0 0
38 0 0 0
68 0 0 0
77 0 0 0
78 0 0 0
79 0 0 0
80 0 0 0
111 0 0 0
112 0 0 0
126 0 0 0
127 0 0 0
129 0 0 0
187 0 0 0
51 0 0 0
53 0 0 0
54 0 0 0
64 0 0 0
110 0 0 0
152 0 0 0
153 0 0 0
154 0 0 0
177 0 0 0
191 0 0 0
195 0 0 0
205 0 0 0
243 0 0 0
251 0 0 0
252 0 0 0
3 0 0 0
40 0 0 0
48 0 0 0
49 0 0 0
50 0 0 0
52 0 0 0
98 0 0 0
107 0 0 0
131 0 0 0
184 0 0 0
185 0 0 0
189 0 0 0
192 0 0 0
202 0 0 0
242 0 0 0
247 0 0 0
254 0 0 0
256 0 0 0
34 0 0 0
66 0 0 0
96 0 0 0
128 0 0 0
155 0 0 0
156 0 0 0
157 0 0 0
158 0 0 0
179 0 0 0
181 0 0 0
182 0 0 0
183 0 0 0
186 0 0 0
197 0 0 0
244 0 0 0
245 0 0 0
246 0 0 0
248 0 0 0
253 0 0 0
255 0 0 0
63 0 0 0
65 0 0 0
67 0 0 0
89 0 0 0
90 0 0 0
174 0 0 0
175 0 0 0
194 0 0 0
196 0 0 0
198 0 0 0
250 0 0 0
24 0 0 0
41 0 0 0
43 0 0 0
46 0 0 0
62 0 0 0
88 0 0 0
95 0 0 0
99 0 0 0
101 0 0 0
104 0 0 0
173 0 0 0
193 0 0 0
249 0 0 0
9 0 0 0
39 0 0 0
42 0 0 0
44 0 0 0
92 0 0 0
94 0 0 0
97 0 0 0
100 0 0 0
102 0 0 0
178 0 0 0
241 0 0 0
91 0 0 0
93 0 0 0
114 0 0 0
115 0 0 0
116 0 0 0
118 0 0 0
134 0 0 0
135 0 0 0
136 0 0 0
138 0 0 0
176 0 0 0
180 0 0 0
220 0 0 0
222 0 0 0
223 0 0 0
224 0 0 0
10 0 0 0
23 0 0 0
47 0 0 0
83 0 0 0
86 0 0 0
87 0 0 0
105 0 0 0
113 0 0 0
133 0 0 0
147 0 0 0
150 0 0 0
151 0 0 0
217 0 0 0
218 0 0 0
6 0 0 0
15 0 0 0
45 0 0 0
56 0 0 0
58 0 0 0
60 0 0 0
82 0 0 0
84 0 0 0
85 0 0 0
103 0 0 0
117 0 0 0
137 0 0 0
146 0 0 0
148 0 0 0
149 0 0 0
226 0 0 0
2 0 0 0
4 0 0 0
13 0 0 0
17 0 0 0
22 0 0 0
30 0 0 0
55 0 0 0
57 0 0 0
139 0 0 0
140 0 0 0
141 0 0 0
143 0 0 0
225 0 0 0
229 0 0 0
8 0 0 0
27 0 0 0
59 0 0 0
145 0 0 0
161 0 0 0
170 0 0 0
215 0 0 0
216 0 0 0
219 0 0 0
221 0 0 0
235 0 0 0
238 0 0 0
239 0 0 0
240 0 0 0
18 0 0 0
26 0 0 0
29 0 0 0
37 0 0 0
61 0 0 0
142 0 0 0
144 0 0 0
167 0 0 0
212 0 0 0
214 0 0 0
232 0 0 0
234 0 0 0
236 0 0 0
237 0 0 0
