LAMMPS data file via write_data, version 29 Aug 2024, timestep = 10, units = metal

240 atoms
1 atom types

0 13.98284573 xlo xhi
0 25.61841258 ylo yhi
0 8.07299975 zlo zhi

Masses

1 55.8

Atoms # atomic

14 1 1.104123392353 0.978309288037 6.019465798333 0 0 0
20 1 2.26936048991 1.511660948117 4.001215860833 0 0 0
119 1 2.269360540714004 4.094927495306277 8.037715735833007 0 0 0
162 1 4.599834824853 3.240284549262 8.037715735833 0 0 0
164 1 3.434597727296 2.374575787602 1.982965923333 0 0 0
165 1 1.104123392353 3.240284549262 1.982965923333 0 0 0
171 1 4.599834824853 0.978309288037 4.001215860833 0 0 0
207 1 4.599834824853 3.240284549262 4.001215860833 0 0 0
209 1 3.434597727296 2.374575787602 6.019465798333 0 0 0
210 1 1.104123392353 3.240284549262 6.019465798333 0 0 0
211 1 2.2693605407139965 4.0949274953062735 4.001215860832998 0 0 0
227 1 4.599834824853 0.978309288037 8.037715735833 0 0 0
230 1 1.104123392353 0.978309288037 1.982965923333 0 0 0
231 1 2.26936048991 1.511660948117 8.037715735833 0 0 0
16 1 8.095546257353 3.240284549262 6.019465798333 0 0 0
21 1 9.260783405714005 4.094927495306273 4.001215860832998 0 0 0
25 1 6.930309159796 2.374575787602 4.001215860833 0 0 0
124 1 8.095546257353 3.240284549262 1.982965923333 0 0 0
125 1 9.260783405714003 4.094927495306279 8.037715735833002 0 0 0
159 1 8.095546257353 0.978309288037 6.019465798333 0 0 0
160 1 9.26078335491 1.511660948117 4.001215860833 0 0 0
163 1 5.765071973214005 4.094927495306277 1.9829659233329984 0 0 0
168 1 8.095546257353 0.978309288037 1.982965923333 0 0 0
169 1 9.26078335491 1.511660948117 8.037715735833 0 0 0
172 1 5.76507192241 1.511660948117 6.019465798333 0 0 0
206 1 6.930309159796 2.374575787602 8.037715735833 0 0 0
208 1 5.765071973214006 4.094927495306282 6.019465798332997 0 0 0
228 1 5.76507192241 1.511660948117 1.982965923333 0 0 0
1 1 11.591257689853 3.240284549262 4.001215860833 0 0 0
7 1 12.756494838214005 4.094927495306274 6.019465798333002 0 0 0
11 1 10.426020592296 2.374575787602 6.019465798333 0 0 0
33 1 11.591257689853 0.978309288037 4.001215860833 0 0 0
36 1 12.75649478741 1.511660948117 6.019465798333 0 0 0
120 1 13.921732024796 2.374575787602 8.037715735833 0 0 0
121 1 11.591257689853 3.240284549262 8.037715735833 0 0 0
122 1 12.756494838214005 4.0949274953062735 1.9829659233329975 0 0 0
123 1 10.426020592296 2.374575787602 1.982965923333 0 0 0
166 1 12.75649478741 1.511660948117 1.982965923333 0 0 0
213 1 13.921732024796 2.374575787602 4.001215860833 0 0 0
233 1 11.591257689853 0.978309288037 8.037715735833 0 0 0
12 1 3.434597685091783 4.94559529540893 1.982965923332992 0 0 0
19 1 1.1041233968678854 5.7692488899342 1.9829659233330017 0 0 0
28 1 2.2693605395898353 6.6106129122234725 8.037715735833006 0 0 0
31 1 4.599834829367878 5.769248889934197 8.037715735833007 0 0 0
72 1 4.599834829367892 5.769248889934201 4.001215860833007 0 0 0
74 1 3.4345976850917928 4.9455952954089275 6.019465798332999 0 0 0
75 1 1.1041233968678723 5.769248889934205 6.019465798332999 0 0 0
76 1 2.2693605395898238 6.61061291222348 4.001215860832996 0 0 0
106 1 4.599834826779343 8.298743845337697 4.001215860833003 0 0 0
108 1 3.434597684045197 7.448614057396277 6.019465798333003 0 0 0
109 1 1.10412339427935 8.298743845337695 6.019465798333 0 0 0
201 1 4.599834826779339 8.298743845337697 8.037715735833002 0 0 0
203 1 3.434597684045199 7.4486140573962745 1.982965923332996 0 0 0
204 1 1.104123394279343 8.298743845337697 1.9829659233330077 0 0 0
5 1 5.765071972089829 6.610612912223475 1.9829659233329964 0 0 0
69 1 8.095546261867884 5.769248889934202 1.9829659233329906 0 0 0
70 1 9.260783404589832 6.610612912223468 8.037715735833006 0 0 0
71 1 6.930309117591793 4.945595295408922 8.037715735832998 0 0 0
73 1 5.765071972089827 6.610612912223469 6.0194657983329884 0 0 0
81 1 8.095546261867883 5.769248889934189 6.019465798333003 0 0 0
130 1 8.095546259279336 8.298743845337693 1.9829659233329935 0 0 0
132 1 6.930309116545199 7.44861405739628 8.037715735833011 0 0 0
188 1 8.095546259279349 8.298743845337702 6.019465798332997 0 0 0
190 1 6.930309116545193 7.448614057396274 4.001215860833002 0 0 0
199 1 9.260783404589839 6.610612912223479 4.001215860832998 0 0 0
200 1 6.930309117591779 4.9455952954089275 4.001215860833004 0 0 0
32 1 13.921731982591783 4.945595295408927 8.037715735832997 0 0 0
35 1 11.591257694367881 5.769248889934198 8.037715735833 0 0 0
38 1 12.756494837089829 6.6106129122234805 1.9829659233330044 0 0 0
68 1 10.426020550091788 4.945595295408931 1.9829659233330021 0 0 0
77 1 13.921731982591789 4.945595295408928 4.001215860833001 0 0 0
78 1 11.591257694367874 5.769248889934199 4.001215860832996 0 0 0
79 1 12.756494837089836 6.610612912223468 6.019465798333002 0 0 0
80 1 10.426020550091787 4.945595295408928 6.019465798333 0 0 0
111 1 13.921731981545202 7.448614057396276 4.0012158608329935 0 0 0
112 1 11.59125769177934 8.298743845337693 4.001215860833001 0 0 0
126 1 13.921731981545193 7.448614057396278 8.037715735832997 0 0 0
127 1 11.591257691779349 8.298743845337697 8.037715735833006 0 0 0
129 1 10.426020549045203 7.448614057396273 1.9829659233329975 0 0 0
187 1 10.426020549045198 7.448614057396276 6.0194657983329956 0 0 0
51 1 4.599834824404302 10.882351324738014 4.001215860833004 0 0 0
53 1 3.434597681589672 9.998839579153332 6.019465798333005 0 0 0
54 1 1.1041233919043034 10.882351324738018 6.019465798333002 0 0 0
64 1 3.4345976794070485 12.690145219666952 6.019465798333002 0 0 0
110 1 2.2693605383224775 9.125295560212638 4.001215860833002 0 0 0
152 1 3.434597681589669 9.998839579153332 1.982965923333 0 0 0
153 1 1.1041233919043036 10.882351324738016 1.982965923332993 0 0 0
154 1 2.269360536742062 11.543870480014098 8.037715735833 0 0 0
177 1 2.2693605367420604 11.543870480014132 4.001215860833002 0 0 0
191 1 4.5998348244042875 10.882351324738016 8.037715735832993 0 0 0
195 1 3.4345976794070516 12.690145219666956 1.9829659233330033 0 0 0
205 1 2.269360538322482 9.125295560212656 8.037715735832998 0 0 0
3 1 6.930309114089667 9.998839579153334 4.001215860833007 0 0 0
40 1 6.930309111907042 12.690145219666956 8.037715735832998 0 0 0
48 1 8.095546256904294 10.882351324738016 1.982965923332996 0 0 0
49 1 9.260783401742056 11.54387048001412 8.037715735833004 0 0 0
50 1 6.930309114089673 9.998839579153328 8.037715735833 0 0 0
52 1 5.765071969242061 11.543870480014114 6.019465798333 0 0 0
98 1 6.930309111907044 12.69014521966695 4.001215860832999 0 0 0
107 1 5.765071970822477 9.125295560212646 6.0194657983329956 0 0 0
131 1 9.260783403322474 9.12529556021265 8.037715735832998 0 0 0
184 1 8.095546256904292 10.882351324738012 6.019465798333001 0 0 0
185 1 9.260783401742053 11.543870480014128 4.001215860833002 0 0 0
189 1 9.260783403322478 9.12529556021263 4.001215860833007 0 0 0
192 1 5.765071969242057 11.543870480014146 1.9829659233330028 0 0 0
202 1 5.765071970822481 9.12529556021263 1.9829659233329961 0 0 0
34 1 10.426020544407043 12.690145219666956 1.9829659233329953 0 0 0
66 1 13.921731976907045 12.690145219666958 4.001215860833 0 0 0
96 1 10.426020544407042 12.690145219666954 6.019465798333004 0 0 0
128 1 12.756494835822478 9.125295560212631 1.9829659233329953 0 0 0
155 1 13.921731979089671 9.99883957915333 8.037715735832998 0 0 0
156 1 11.591257689404296 10.882351324738014 8.037715735832998 0 0 0
157 1 12.756494834242055 11.543870480014142 1.982965923332994 0 0 0
158 1 10.426020546589672 9.998839579153328 1.9829659233329937 0 0 0
179 1 13.921731979089671 9.998839579153326 4.001215860833006 0 0 0
181 1 11.591257689404296 10.882351324738018 4.001215860833005 0 0 0
182 1 12.756494834242055 11.543870480014114 6.019465798333002 0 0 0
183 1 10.42602054658967 9.998839579153328 6.0194657983330035 0 0 0
186 1 12.75649483582248 9.12529556021265 6.019465798332999 0 0 0
197 1 13.921731976907045 12.690145219666954 8.037715735833002 0 0 0
63 1 2.269360535604113 13.83066068081425 4.001215860833 0 0 0
65 1 4.599834823745718 14.493631437250976 4.001215860833004 0 0 0
67 1 1.1041233912457162 14.493631437250974 6.019465798333001 0 0 0
89 1 2.2693605367553484 16.250688763134256 8.037715735833002 0 0 0
90 1 3.4345976803487863 15.380232285104746 1.9829659233329948 0 0 0
174 1 2.2693605367553387 16.25068876313428 4.001215860832997 0 0 0
175 1 3.434597680348792 15.380232285104746 6.019465798333006 0 0 0
194 1 2.269360535604113 13.830660680814283 8.037715735833 0 0 0
196 1 4.5998348237457085 14.493631437250976 8.037715735832991 0 0 0
198 1 1.104123391245723 14.493631437250974 1.982965923332994 0 0 0
24 1 9.260783400604112 13.830660680814255 8.037715735833004 0 0 0
41 1 8.095546256245727 14.493631437250972 1.982965923333001 0 0 0
43 1 9.260783401755347 16.250688763134278 4.001215860832994 0 0 0
46 1 6.930309112848787 15.38023228510475 4.0012158608330015 0 0 0
62 1 5.765071968104112 13.830660680814265 6.019465798332998 0 0 0
88 1 5.765071969255341 16.25068876313429 1.9829659233330055 0 0 0
95 1 9.260783400604108 13.830660680814256 4.001215860832995 0 0 0
99 1 8.095546256245713 14.49363143725097 6.019465798333006 0 0 0
101 1 9.260783401755331 16.250688763134274 8.037715735832998 0 0 0
104 1 6.930309112848795 15.380232285104745 8.037715735832993 0 0 0
173 1 5.765071969255344 16.25068876313427 6.019465798332999 0 0 0
193 1 5.765071968104109 13.830660680814228 1.9829659233330004 0 0 0
9 1 12.756494833104107 13.830660680814237 1.9829659233330001 0 0 0
39 1 11.591257688745713 14.493631437250968 8.037715735832998 0 0 0
42 1 12.756494834255337 16.250688763134274 6.019465798333 0 0 0
44 1 10.426020545348798 15.380232285104746 6.019465798332999 0 0 0
92 1 13.921731977848795 15.380232285104746 8.037715735833004 0 0 0
94 1 12.756494833104107 13.830660680814267 6.019465798333 0 0 0
97 1 11.591257688745715 14.493631437250974 4.001215860833002 0 0 0
100 1 12.756494834255351 16.25068876313429 1.9829659233329984 0 0 0
102 1 10.426020545348784 15.380232285104741 1.982965923333006 0 0 0
178 1 13.921731977848792 15.38023228510475 4.001215860833004 0 0 0
91 1 4.599834824389577 17.082719467117485 8.037715735833002 0 0 0
93 1 1.1041233918895752 17.08271946711748 1.9829659233330066 0 0 0
114 1 2.2693605378245914 18.770416395885626 8.037715735832993 0 0 0
115 1 3.434597682247761 17.93859142845481 1.9829659233330024 0 0 0
116 1 4.599834826235955 19.629174963885376 8.037715735832998 0 0 0
118 1 1.1041233937359594 19.629174963885376 1.982965923333008 0 0 0
134 1 2.269360537824573 18.770416395885622 4.001215860832998 0 0 0
135 1 3.434597682247752 17.93859142845482 6.019465798333006 0 0 0
136 1 4.5998348262359645 19.629174963885376 4.001215860832997 0 0 0
138 1 1.1041233937359687 19.62917496388538 6.019465798332995 0 0 0
176 1 4.599834824389583 17.082719467117485 4.00121586083299 0 0 0
180 1 1.1041233918895819 17.082719467117485 6.019465798332993 0 0 0
222 1 3.4345976825986275 20.458722084204403 1.9829659233329984 0 0 0
224 1 3.4345976825986257 20.4587220842044 6.0194657983330035 0 0 0
23 1 6.930309115098628 20.4587220842044 4.001215860833002 0 0 0
47 1 8.095546256889577 17.08271946711749 6.0194657983330035 0 0 0
83 1 9.260783402824588 18.77041639588562 4.001215860832996 0 0 0
86 1 6.93030911474775 17.938591428454814 4.001215860833002 0 0 0
87 1 8.095546258735961 19.629174963885372 6.0194657983330035 0 0 0
105 1 8.09554625688958 17.08271946711748 1.9829659233330006 0 0 0
113 1 5.765071970324577 18.770416395885615 1.9829659233330041 0 0 0
133 1 5.765071970324585 18.77041639588562 6.019465798332999 0 0 0
147 1 9.260783402824575 18.770416395885622 8.037715735833 0 0 0
150 1 6.9303091147477565 17.93859142845481 8.037715735832995 0 0 0
151 1 8.095546258735972 19.629174963885376 1.9829659233330021 0 0 0
217 1 6.930309115098632 20.458722084204403 8.037715735832993 0 0 0
15 1 10.426020547598633 20.458722084204396 6.019465798332998 0 0 0
45 1 11.591257689389579 17.08271946711749 4.001215860833002 0 0 0
56 1 13.921731980098631 20.458722084204403 8.037715735833 0 0 0
60 1 10.426020547598629 20.4587220842044 1.9829659233330055 0 0 0
82 1 12.756494835324576 18.77041639588562 6.019465798333001 0 0 0
84 1 10.426020547247756 17.938591428454817 6.019465798332998 0 0 0
85 1 11.591257691235958 19.629174963885372 4.001215860833002 0 0 0
103 1 11.59125768938959 17.08271946711749 8.037715735832995 0 0 0
117 1 13.921731979747745 17.938591428454814 8.037715735833007 0 0 0
137 1 13.921731979747758 17.938591428454814 4.001215860832994 0 0 0
146 1 12.756494835324586 18.77041639588561 1.9829659233329995 0 0 0
148 1 10.426020547247754 17.938591428454817 1.9829659233330068 0 0 0
149 1 11.591257691235967 19.629174963885372 8.037715735832997 0 0 0
226 1 13.921731980098635 20.458722084204396 4.001215860832997 0 0 0
2 1 1.104123392353 22.162058453958 6.019465798333 0 0 0
4 1 3.434597727296 25.51037779161 6.019465798333 0 0 0
13 1 2.26936048991 23.890681807918 8.037715735833 0 0 0
17 1 3.434597727296 23.027767215617 1.982965923333 0 0 0
22 1 4.599834824853 24.424033467998 8.037715735833 0 0 0
30 1 1.104123392353 24.424033467998 1.982965923333 0 0 0
55 1 4.599834824853 22.162058453958 8.037715735833 0 0 0
57 1 1.104123392353 22.162058453958 1.982965923333 0 0 0
139 1 2.26936048991 23.890681807918 4.001215860833 0 0 0
140 1 3.434597727296 23.027767215617 6.019465798333 0 0 0
141 1 4.599834824853 24.424033467998 4.001215860833 0 0 0
143 1 1.104123392353 24.424033467998 6.019465798333 0 0 0
220 1 2.2693605393414744 21.292323744662426 8.037715735832998 0 0 0
223 1 2.269360539341471 21.292323744662422 4.001215860833001 0 0 0
225 1 4.599834824853 22.162058453958 4.001215860833 0 0 0
229 1 3.434597727296 25.51037779161 1.982965923333 0 0 0
8 1 5.76507192241 23.890681807918 1.982965923333 0 0 0
10 1 9.260783404341476 21.292323744662426 4.001215860832998 0 0 0
27 1 8.095546257353 22.162058453958 6.019465798333 0 0 0
59 1 9.260783404341472 21.29232374466243 8.037715735832998 0 0 0
145 1 9.26078335491 23.890681807918 4.001215860833 0 0 0
161 1 6.930309159796 25.51037779161 4.001215860833 0 0 0
170 1 6.930309159796 25.51037779161 8.037715735833 0 0 0
215 1 6.930309159796 23.027767215617 4.001215860833 0 0 0
216 1 8.095546257353 24.424033467998 6.019465798333 0 0 0
218 1 5.765071971841469 21.29232374466243 1.982965923333002 0 0 0
219 1 8.095546257353 22.162058453958 1.982965923333 0 0 0
221 1 5.7650719718414685 21.292323744662426 6.019465798333003 0 0 0
235 1 9.26078335491 23.890681807918 8.037715735833 0 0 0
238 1 6.930309159796 23.027767215617 8.037715735833 0 0 0
239 1 8.095546257353 24.424033467998 1.982965923333 0 0 0
240 1 5.76507192241 23.890681807918 6.019465798333 0 0 0
6 1 12.756494836841469 21.292323744662426 6.019465798333001 0 0 0
18 1 11.591257689853 22.162058453958 4.001215860833 0 0 0
26 1 13.921732024796 23.027767215617 8.037715735833 0 0 0
29 1 13.921732024796 25.51037779161 4.001215860833 0 0 0
37 1 10.426020592296 25.51037779161 6.019465798333 0 0 0
58 1 12.756494836841473 21.29232374466243 1.9829659233330028 0 0 0
61 1 11.591257689853 22.162058453958 8.037715735833 0 0 0
142 1 13.921732024796 23.027767215617 4.001215860833 0 0 0
144 1 12.75649478741 23.890681807918 6.019465798333 0 0 0
167 1 10.426020592296 25.51037779161 1.982965923333 0 0 0
212 1 10.426020592296 23.027767215617 6.019465798333 0 0 0
214 1 11.591257689853 24.424033467998 4.001215860833 0 0 0
232 1 13.921732024796 25.51037779161 8.037715735833 0 0 0
234 1 12.75649478741 23.890681807918 1.982965923333 0 0 0
236 1 10.426020592296 23.027767215617 1.982965923333 0 0 0
237 1 11.591257689853 24.424033467998 8.037715735833 0 0 0

Velocities

14 0 0 0
20 0 0 0
119 0 0 0
162 0 0 0
164 0 0 0
165 0 0 0
171 0 0 0
207 0 0 0
209 0 0 0
210 0 0 0
211 0 0 0
227 0 0 0
230 0 0 0
231 0 0 0
16 0 0 0
21 0 0 0
25 0 0 0
124 0 0 0
125 0 0 0
159 0 0 0
160 0 0 0
163 0 0 0
168 0 0 0
169 0 0 0
172 0 0 0
206 0 0 0
208 0 0 0
228 0 0 0
1 0 0 0
7 0 0 0
11 0 0 0
33 0 0 0
36 0 0 0
120 0 0 0
121 0 0 0
122 0 0 0
123 0 0 0
166 0 0 0
213 0 0 0
233 0 0 0
12 0 0 0
19 0 0 0
28 0 0 0
31 0 0 0
72 0 0 0
74 0 0 0
75 0 0 0
76 0 0 0
106 0 0 0
108 0 0 0
109 0 0 0
201 0 0 0
203 0 0 0
204 0 0 0
5 0 0 0
69 0 0 0
70 0 0 0
71 0 0 0
73 0 0 0
81 0 0 0
130 0 0 0
132 0 0 0
188 0 0 0
190 0 0 0
199 0 0 0
200 0 0 0
32 0 0 0
35 0 0 0
38 0 0 0
68 0 0 0
77 0 0 0
78 0 0 0
79 0 0 0
80 0 0 0
111 0 0 0
112 0 0 0
126 0 0 0
127 0 0 0
129 0 0 0
187 0 0 0
51 0 0 0
53 0 0 0
54 0 0 0
64 0 0 0
110 0 0 0
152 0 0 0
153 0 0 0
154 0 0 0
177 0 0 0
191 0 0 0
195 0 0 0
205 0 0 0
3 0 0 0
40 0 0 0
48 0 0 0
49 0 0 0
50 0 0 0
52 0 0 0
98 0 0 0
107 0 0 0
131 0 0 0
184 0 0 0
185 0 0 0
189 0 0 0
192 0 0 0
202 0 0 0
34 0 0 0
66 0 0 0
96 0 0 0
128 0 0 0
155 0 0 0
156 0 0 0
157 0 0 0
158 0 0 0
179 0 0 0
181 0 0 0
182 0 0 0
183 0 0 0
186 0 0 0
197 0 0 0
63 0 0 0
65 0 0 0
67 0 0 0
89 0 0 0
90 0 0 0
174 0 0 0
175 0 0 0
194 0 0 0
196 0 0 0
198 0 0 0
24 0 0 0
41 0 0 0
43 0 0 0
46 0 0 0
62 0 0 0
88 0 0 0
95 0 0 0
99 0 0 0
101 0 0 0
104 0 0 0
173 0 0 0
193 0 0 0
9 0 0 0
39 0 0 0
42 0 0 0
44 0 0 0
92 0 0 0
94 0 0 0
97 0 0 0
100 0 0 0
102 0 0 0
178 0 0 0
91 0 0 0
93 0 0 0
114 0 0 0
115 0 0 0
116 0 0 0
118 0 0 0
134 0 0 0
135 0 0 0
136 0 0 0
138 0 0 0
176 0 0 0
180 0 0 0
222 0 0 0
224 0 0 0
23 0 0 0
47 0 0 0
83 0 0 0
86 0 0 0
87 0 0 0
105 0 0 0
113 0 0 0
133 0 0 0
147 0 0 0
150 0 0 0
151 0 0 0
217 0 0 0
15 0 0 0
45 0 0 0
56 0 0 0
60 0 0 0
82 0 0 0
84 0 0 0
85 0 0 0
103 0 0 0
117 0 0 0
137 0 0 0
146 0 0 0
148 0 0 0
149 0 0 0
226 0 0 0
2 0 0 0
4 0 0 0
13 0 0 0
17 0 0 0
22 0 0 0
30 0 0 0
55 0 0 0
57 0 0 0
139 0 0 0
140 0 0 0
141 0 0 0
143 0 0 0
220 0 0 0
223 0 0 0
225 0 0 0
229 0 0 0
8 0 0 0
10 0 0 0
27 0 0 0
59 0 0 0
145 0 0 0
161 0 0 0
170 0 0 0
215 0 0 0
216 0 0 0
218 0 0 0
219 0 0 0
221 0 0 0
235 0 0 0
238 0 0 0
239 0 0 0
240 0 0 0
6 0 0 0
18 0 0 0
26 0 0 0
29 0 0 0
37 0 0 0
58 0 0 0
61 0 0 0
142 0 0 0
144 0 0 0
167 0 0 0
212 0 0 0
214 0 0 0
232 0 0 0
234 0 0 0
236 0 0 0
237 0 0 0
