LAMMPS data file via write_data, version 29 Aug 2024, timestep = 18, units = metal

288 atoms
1 atom types

0 11.317147 xlo xhi
0 26.863582 ylo yhi
0 11.317147 zlo zhi

Masses

1 55.8

Atoms # atomic

1 1 0 0 0 0 0 0
2 1 1.414643375 1.414643557616 1.414643375 0 0 0
3 1 0 0 2.82928675 0 0 0
4 1 1.414643375 1.414643557616 4.243930125 0 0 0
9 1 0 2.82928660596 0 0 0 0
10 1 1.414643375000013 4.348005680354412 1.4146433749999994 0 0 0
11 1 0 2.82928660596 2.82928675 0 0 0
12 1 1.4146433749999971 4.34800568035439 4.243930124999977 0 0 0
73 1 2.82928675 0 0 0 0 0
74 1 4.243930125 1.414643557616 1.414643375 0 0 0
75 1 2.82928675 0 2.82928675 0 0 0
76 1 4.243930125 1.414643557616 4.243930125 0 0 0
81 1 2.82928675 2.82928660596 0 0 0 0
82 1 4.243930125000027 4.348005680354416 1.414643375000025 0 0 0
83 1 2.82928675 2.82928660596 2.82928675 0 0 0
84 1 4.243930124999988 4.348005680354382 4.243930124999978 0 0 0
145 1 5.6585735 0 0 0 0 0
146 1 7.073216875 1.414643557616 1.414643375 0 0 0
147 1 5.6585735 0 2.82928675 0 0 0
148 1 7.073216875 1.414643557616 4.243930125 0 0 0
153 1 5.6585735 2.82928660596 0 0 0 0
154 1 7.073216874999998 4.348005680354384 1.4146433749999963 0 0 0
155 1 5.6585735 2.82928660596 2.82928675 0 0 0
156 1 7.073216875000067 4.348005680354378 4.243930125000009 0 0 0
217 1 8.48786025 0 0 0 0 0
218 1 9.902503625 1.414643557616 1.414643375 0 0 0
219 1 8.48786025 0 2.82928675 0 0 0
220 1 9.902503625 1.414643557616 4.243930125 0 0 0
225 1 8.48786025 2.82928660596 0 0 0 0
226 1 9.902503624999966 4.3480056803543645 1.4146433750000227 0 0 0
227 1 8.48786025 2.82928660596 2.82928675 0 0 0
228 1 9.902503624999948 4.348005680354391 4.243930124999997 0 0 0
17 1 8.352168019067927e-14 5.85932801965522 11.317146999999945 0 0 -1
18 1 1.4146433749999625 7.375813076229222 1.4146433750000131 0 0 0
19 1 5.306836961945198e-14 5.859328019655221 2.8292867500000227 0 0 0
20 1 1.414643374999926 7.375813076229233 4.243930124999956 0 0 0
25 1 8.346073322186635e-14 8.889647522356542 11.31714699999993 0 0 -1
27 1 6.628479923455139e-14 8.88964752235654 2.829286750000022 0 0 0
89 1 2.8292867499999668 5.859328019655175 4.60341627592296e-14 0 0 0
90 1 4.243930125000106 7.375813076229209 1.4146433750000311 0 0 0
91 1 2.8292867500000005 5.859328019655184 2.829286749999966 0 0 0
92 1 4.243930125000056 7.375813076229231 4.243930124999981 0 0 0
97 1 2.8292867499999734 8.889647522356588 4.365699758792267e-15 0 0 0
99 1 2.829286749999961 8.889647522356558 2.8292867499999885 0 0 0
161 1 5.658573499999978 5.85932801965522 8.024270842236394e-14 0 0 0
162 1 7.073216874999956 7.37581307622921 1.4146433749999618 0 0 0
163 1 5.658573499999921 5.859328019655223 2.8292867499999144 0 0 0
164 1 7.073216875000074 7.375813076229234 4.243930125000054 0 0 0
169 1 5.658573499999985 8.88964752235658 3.3501176006677725e-14 0 0 0
171 1 5.658573499999909 8.889647522356539 2.8292867499999566 0 0 0
233 1 8.48786024999997 5.8593280196552024 11.317146999999975 0 0 -1
234 1 9.902503624999973 7.375813076229222 1.4146433750000371 0 0 0
235 1 8.487860250000036 5.859328019655201 2.829286750000043 0 0 0
236 1 9.90250362499995 7.375813076229227 4.243930124999984 0 0 0
241 1 8.487860249999965 8.889647522356567 11.31714699999996 0 0 -1
243 1 8.487860250000073 8.889647522356544 2.829286750000051 0 0 0
26 1 1.4146433749999925 10.401976934921873 1.4146433750000103 0 0 0
28 1 1.414643374999993 10.401976934921858 4.24393012499998 0 0 0
33 1 5.53730717822884e-14 11.915183849220957 11.317146999999977 0 0 -1
34 1 1.4146433750000096 13.427806922034158 1.4146433750000853 0 0 0
35 1 3.022944512337288e-14 11.915183849221009 2.829286749999975 0 0 0
36 1 1.4146433750000054 13.427806922034197 4.243930124999901 0 0 0
98 1 4.24393012500007 10.401976934921851 1.4146433749999736 0 0 0
100 1 4.243930125000059 10.401976934921878 4.243930125000057 0 0 0
105 1 2.8292867499999828 11.91518384922098 11.317146999999986 0 0 -1
106 1 4.24393012500004 13.427806922034145 1.4146433750000396 0 0 0
107 1 2.829286749999949 11.91518384922102 2.829286749999989 0 0 0
108 1 4.2439301250000545 13.427806922034163 4.243930124999978 0 0 0
170 1 7.073216874999987 10.40197693492187 1.4146433749998863 0 0 0
172 1 7.073216875000034 10.401976934921858 4.24393012500012 0 0 0
177 1 5.6585735 11.915183849220977 11.31714699999998 0 0 -1
178 1 7.0732168749999715 13.427806922034167 1.414643374999971 0 0 0
179 1 5.658573499999921 11.91518384922102 2.829286750000002 0 0 0
180 1 7.07321687499999 13.427806922034199 4.243930124999999 0 0 0
242 1 9.902503624999941 10.401976934921908 1.4146433750000353 0 0 0
244 1 9.902503624999913 10.401976934921864 4.243930124999993 0 0 0
249 1 8.487860249999965 11.915183849220952 11.317146999999999 0 0 -1
250 1 9.902503624999971 13.427806922034156 1.414643375000108 0 0 0
251 1 8.48786025000011 11.915183849221004 2.829286750000014 0 0 0
252 1 9.902503624999936 13.427806922034195 4.243930124999879 0 0 0
41 1 1.899433821457638e-14 14.939831400961278 11.317146999999961 0 0 -1
42 1 1.4146433750000555 16.451434687545873 1.414643374999968 0 0 0
43 1 1.1162787387904274e-14 14.939831400961195 2.8292867500000414 0 0 0
44 1 1.4146433750000589 16.451434687545873 4.243930124999995 0 0 0
113 1 2.829286749999956 14.9398314009613 11.31714699999996 0 0 -1
114 1 4.2439301249999986 16.4514346875459 1.414643374999955 0 0 0
115 1 2.8292867499999272 14.939831400961234 2.829286750000032 0 0 0
116 1 4.2439301249999835 16.451434687545888 4.243930125000022 0 0 0
185 1 5.658573500000065 14.939831400961275 11.317146999999965 0 0 -1
186 1 7.073216874999957 16.4514346875459 1.4146433749998941 0 0 0
187 1 5.658573499999991 14.93983140096121 2.8292867500000307 0 0 0
188 1 7.073216875000019 16.451434687545877 4.243930125000024 0 0 0
257 1 8.487860249999962 14.939831400961278 11.31714699999996 0 0 -1
258 1 9.902503624999982 16.451434687545905 1.4146433749999712 0 0 0
259 1 8.48786025000007 14.939831400961205 2.829286750000087 0 0 0
260 1 9.902503624999936 16.451434687545888 4.243930124999949 0 0 0
49 1 11.317146999999961 17.963275645274923 2.180486656856094e-14 -1 0 0
50 1 1.4146433750000116 19.47559216087321 1.414643374999996 0 0 0
51 1 11.317146999999967 17.963275645274937 2.829286750000027 -1 0 0
52 1 1.4146433750000218 19.475592160873198 4.243930124999969 0 0 0
57 1 11.317146999999967 20.986101381273198 4.5898610077116565e-14 -1 0 0
59 1 11.317146999999979 20.98610138127319 2.8292867499999907 -1 0 0
121 1 2.8292867499999605 17.963275645274894 11.317146999999999 0 0 -1
122 1 4.243930125000037 19.47559216087323 1.414643375000022 0 0 0
123 1 2.8292867499999717 17.963275645274923 2.829286750000034 0 0 0
124 1 4.243930125000003 19.47559216087321 4.243930124999967 0 0 0
129 1 2.8292867499999854 20.986101381273198 1.2879286952394927e-14 0 0 0
131 1 2.8292867500000103 20.986101381273183 2.829286750000012 0 0 0
193 1 5.658573500000058 17.9632756452749 2.165496690437051e-14 0 0 0
194 1 7.073216874999939 19.47559216087322 1.4146433749999707 0 0 0
195 1 5.658573499999999 17.96327564527495 2.8292867499999894 0 0 0
196 1 7.07321687499999 19.475592160873198 4.243930124999961 0 0 0
201 1 5.658573500000026 20.986101381273173 3.845758097473024e-14 0 0 0
203 1 5.658573499999993 20.986101381273176 2.8292867499999708 0 0 0
265 1 8.48786025000002 17.9632756452749 2.2575214328655792e-15 0 0 0
266 1 9.902503625000017 19.475592160873227 1.4146433749999805 0 0 0
267 1 8.487860250000056 17.963275645274923 2.829286750000059 0 0 0
268 1 9.90250362499999 19.475592160873195 4.243930124999938 0 0 0
273 1 8.487860250000033 20.986101381273212 3.392453791463379e-14 0 0 0
275 1 8.487860250000029 20.986101381273198 2.829286750000007 0 0 0
58 1 1.4146433750000105 22.487638414681165 1.414643374999982 0 0 0
60 1 1.4146433750000211 22.487638414681157 4.243930125000012 0 0 0
65 1 0 24.03429539404 0 0 0 0
66 1 1.414643375 25.448937423841 1.414643375 0 0 0
67 1 0 24.03429539404 2.82928675 0 0 0
68 1 1.414643375 25.448937423841 4.243930125 0 0 0
130 1 4.243930125000008 22.48763841468116 1.4146433749999974 0 0 0
132 1 4.243930124999988 22.48763841468116 4.243930125000007 0 0 0
137 1 2.82928675 24.03429539404 0 0 0 0
138 1 4.243930125 25.448937423841 1.414643375 0 0 0
139 1 2.82928675 24.03429539404 2.82928675 0 0 0
140 1 4.243930125 25.448937423841 4.243930125 0 0 0
202 1 7.073216874999992 22.487638414681168 1.414643374999982 0 0 0
204 1 7.073216875000011 22.48763841468119 4.243930125000008 0 0 0
209 1 5.6585735 24.03429539404 0 0 0 0
210 1 7.073216875 25.448937423841 1.414643375 0 0 0
211 1 5.6585735 24.03429539404 2.82928675 0 0 0
212 1 7.073216875 25.448937423841 4.243930125 0 0 0
274 1 9.902503624999996 22.48763841468115 1.4146433749999756 0 0 0
276 1 9.902503624999982 22.48763841468116 4.243930124999999 0 0 0
281 1 8.48786025 24.03429539404 0 0 0 0
282 1 9.902503625 25.448937423841 1.414643375 0 0 0
283 1 8.48786025 24.03429539404 2.82928675 0 0 0
284 1 9.902503625 25.448937423841 4.243930125 0 0 0
5 1 0 0 5.6585735 0 0 0
6 1 1.414643375 1.414643557616 7.073216875 0 0 0
7 1 0 0 8.48786025 0 0 0
8 1 1.414643375 1.414643557616 9.902503625 0 0 0
13 1 0 2.82928660596 5.6585735 0 0 0
14 1 1.4146433750000333 4.348005680354409 7.073216875000009 0 0 0
15 1 0 2.82928660596 8.48786025 0 0 0
16 1 1.4146433749999563 4.348005680354401 9.90250362500002 0 0 0
77 1 2.82928675 0 5.6585735 0 0 0
78 1 4.243930125 1.414643557616 7.073216875 0 0 0
79 1 2.82928675 0 8.48786025 0 0 0
80 1 4.243930125 1.414643557616 9.902503625 0 0 0
85 1 2.82928675 2.82928660596 5.6585735 0 0 0
86 1 4.243930124999962 4.348005680354426 7.0732168750000195 0 0 0
87 1 2.82928675 2.82928660596 8.48786025 0 0 0
88 1 4.243930125000007 4.348005680354376 9.90250362499998 0 0 0
149 1 5.6585735 0 5.6585735 0 0 0
150 1 7.073216875 1.414643557616 7.073216875 0 0 0
151 1 5.6585735 0 8.48786025 0 0 0
152 1 7.073216875 1.414643557616 9.902503625 0 0 0
157 1 5.6585735 2.82928660596 5.6585735 0 0 0
158 1 7.073216875000025 4.348005680354393 7.07321687500002 0 0 0
159 1 5.6585735 2.82928660596 8.48786025 0 0 0
160 1 7.073216875000046 4.3480056803543885 9.902503624999984 0 0 0
221 1 8.48786025 0 5.6585735 0 0 0
222 1 9.902503625 1.414643557616 7.073216875 0 0 0
223 1 8.48786025 0 8.48786025 0 0 0
224 1 9.902503625 1.414643557616 9.902503625 0 0 0
229 1 8.48786025 2.82928660596 5.6585735 0 0 0
230 1 9.902503624999975 4.348005680354363 7.073216874999997 0 0 0
231 1 8.48786025 2.82928660596 8.48786025 0 0 0
232 1 9.902503624999989 4.348005680354389 9.902503624999996 0 0 0
21 1 2.7913309776807024e-14 5.85932801965521 5.658573499999993 0 0 0
22 1 1.4146433750000205 7.375813076229227 7.073216874999992 0 0 0
23 1 4.674709884194782e-14 5.859328019655208 8.487860250000036 0 0 0
24 1 1.4146433749998797 7.375813076229238 9.902503625000037 0 0 0
29 1 4.66934158475462e-14 8.889647522356551 5.658573499999987 0 0 0
31 1 2.130168424889735e-14 8.889647522356542 8.487860250000054 0 0 0
93 1 2.8292867500000143 5.859328019655184 5.658573500000089 0 0 0
94 1 4.243930124999971 7.37581307622921 7.073216875000017 0 0 0
95 1 2.8292867500000196 5.859328019655185 8.487860249999892 0 0 0
96 1 4.2439301250000625 7.375813076229245 9.90250362499997 0 0 0
101 1 2.8292867500000094 8.889647522356588 5.658573500000066 0 0 0
103 1 2.829286750000032 8.889647522356544 8.487860249999942 0 0 0
165 1 5.658573499999978 5.859328019655225 5.65857350000003 0 0 0
166 1 7.073216875000019 7.375813076229207 7.073216874999997 0 0 0
167 1 5.658573499999981 5.859328019655208 8.487860249999974 0 0 0
168 1 7.073216875000048 7.375813076229233 9.902503624999994 0 0 0
173 1 5.658573499999986 8.889647522356592 5.6585734999999815 0 0 0
175 1 5.658573499999957 8.889647522356535 8.487860250000029 0 0 0
237 1 8.487860249999985 5.859328019655218 5.658573499999949 0 0 0
238 1 9.902503624999987 7.375813076229229 7.073216874999991 0 0 0
239 1 8.48786024999996 5.8593280196552 8.487860250000027 0 0 0
240 1 9.902503625000005 7.375813076229243 9.902503624999982 0 0 0
245 1 8.48786024999997 8.889647522356562 5.658573499999942 0 0 0
247 1 8.487860250000017 8.889647522356533 8.487860250000049 0 0 0
30 1 1.414643375000014 10.401976934921874 7.073216874999956 0 0 0
32 1 1.4146433749999563 10.40197693492187 9.902503625000064 0 0 0
37 1 2.653693100527581e-14 11.915183849220943 5.658573500000053 0 0 0
38 1 1.4146433749999718 13.427806922034177 7.073216875000044 0 0 0
39 1 11.31714699999997 11.915183849221016 8.487860249999986 -1 0 0
40 1 1.4146433750000036 13.427806922034183 9.902503624999966 0 0 0
102 1 4.243930124999986 10.401976934921864 7.073216874999934 0 0 0
104 1 4.243930125000057 10.401976934921887 9.90250362500004 0 0 0
109 1 2.829286750000022 11.91518384922095 5.658573500000028 0 0 0
110 1 4.243930125000059 13.427806922034147 7.073216874999999 0 0 0
111 1 2.829286750000005 11.915183849221012 8.487860249999986 0 0 0
112 1 4.243930125000043 13.42780692203415 9.902503624999982 0 0 0
174 1 7.073216875000018 10.40197693492187 7.073216874999912 0 0 0
176 1 7.073216875000005 10.401976934921871 9.902503625000094 0 0 0
181 1 5.6585734999999575 11.915183849220963 5.658573499999991 0 0 0
182 1 7.073216874999965 13.427806922034193 7.073216874999993 0 0 0
183 1 5.658573499999939 11.915183849221025 8.487860250000022 0 0 0
184 1 7.073216874999959 13.427806922034184 9.902503625000048 0 0 0
246 1 9.902503624999978 10.401976934921915 7.073216875000001 0 0 0
248 1 9.90250362499998 10.40197693492188 9.902503624999978 0 0 0
253 1 8.487860249999992 11.915183849220925 5.658573499999994 0 0 0
254 1 9.902503624999994 13.427806922034168 7.073216875000106 0 0 0
255 1 8.487860250000095 11.915183849220998 8.487860249999997 0 0 0
256 1 9.902503624999984 13.427806922034181 9.902503624999904 0 0 0
45 1 4.5899476352940085e-14 14.939831400961243 5.6585735000000055 0 0 0
46 1 1.4146433750000176 16.451434687545888 7.073216875000016 0 0 0
47 1 11.317146999999995 14.939831400961205 8.487860249999994 -1 0 0
48 1 1.4146433750000647 16.45143468754586 9.902503625000028 0 0 0
117 1 2.8292867499999805 14.939831400961278 5.658573499999974 0 0 0
118 1 4.243930125000058 16.4514346875459 7.073216874999957 0 0 0
119 1 2.8292867499999357 14.939831400961248 8.487860250000029 0 0 0
120 1 4.243930124999999 16.451434687545856 9.902503625000067 0 0 0
189 1 5.658573499999997 14.939831400961243 5.658573500000004 0 0 0
190 1 7.073216874999972 16.451434687545913 7.073216874999963 0 0 0
191 1 5.658573499999991 14.939831400961218 8.487860249999997 0 0 0
192 1 7.07321687499997 16.451434687545856 9.902503625000126 0 0 0
261 1 8.487860249999986 14.93983140096125 5.6585734999999655 0 0 0
262 1 9.902503624999955 16.451434687545905 7.073216875000042 0 0 0
263 1 8.48786025000008 14.939831400961214 8.487860249999999 0 0 0
264 1 9.90250362499996 16.451434687545863 9.902503625000044 0 0 0
53 1 1.0997629944792896e-14 17.963275645274933 5.658573500000019 0 0 0
54 1 1.414643374999958 19.475592160873198 7.073216875000077 0 0 0
55 1 6.2648161730732244e-15 17.96327564527495 8.487860249999935 0 0 0
56 1 1.4146433750000484 19.475592160873205 9.902503624999959 0 0 0
61 1 4.7419461186841386e-15 20.986101381273226 5.658573500000023 0 0 0
63 1 2.12303327316187e-14 20.986101381273183 8.487860249999946 0 0 0
125 1 2.8292867499999845 17.963275645274894 5.658573499999964 0 0 0
126 1 4.243930125000096 19.47559216087321 7.0732168750000275 0 0 0
127 1 2.8292867499999343 17.96327564527494 8.487860250000006 0 0 0
128 1 4.24393012500002 19.475592160873216 9.902503624999984 0 0 0
133 1 2.829286749999999 20.986101381273222 5.658573499999966 0 0 0
135 1 2.829286749999958 20.98610138127319 8.487860250000013 0 0 0
197 1 5.6585734999999975 17.963275645274912 5.658573500000058 0 0 0
198 1 7.073216874999956 19.4755921608732 7.0732168750000435 0 0 0
199 1 5.658573500000014 17.963275645274965 8.487860249999928 0 0 0
200 1 7.073216874999946 19.475592160873205 9.902503625000023 0 0 0
205 1 5.658573499999989 20.986101381273194 5.658573500000045 0 0 0
207 1 5.658573500000001 20.986101381273162 8.487860249999944 0 0 0
269 1 8.487860250000013 17.963275645274898 5.65857350000001 0 0 0
270 1 9.902503624999994 19.475592160873198 7.073216875000065 0 0 0
271 1 8.48786025000005 17.96327564527494 8.487860249999919 0 0 0
272 1 9.902503624999985 19.475592160873198 9.902503625000014 0 0 0
277 1 8.487860250000013 20.986101381273226 5.658573500000027 0 0 0
279 1 8.487860250000018 20.986101381273205 8.487860249999938 0 0 0
62 1 1.4146433749999932 22.48763841468115 7.073216875000018 0 0 0
64 1 1.4146433750000367 22.487638414681175 9.902503624999992 0 0 0
69 1 0 24.03429539404 5.6585735 0 0 0
70 1 1.414643375 25.448937423841 7.073216875 0 0 0
71 1 0 24.03429539404 8.48786025 0 0 0
72 1 1.414643375 25.448937423841 9.902503625 0 0 0
134 1 4.2439301250000225 22.48763841468116 7.073216874999992 0 0 0
136 1 4.243930124999996 22.487638414681182 9.902503625000003 0 0 0
141 1 2.82928675 24.03429539404 5.6585735 0 0 0
142 1 4.243930125 25.448937423841 7.073216875 0 0 0
143 1 2.82928675 24.03429539404 8.48786025 0 0 0
144 1 4.243930125 25.448937423841 9.902503625 0 0 0
206 1 7.073216875000002 22.48763841468116 7.073216875000004 0 0 0
208 1 7.073216874999999 22.48763841468119 9.902503625000008 0 0 0
213 1 5.6585735 24.03429539404 5.6585735 0 0 0
214 1 7.073216875 25.448937423841 7.073216875 0 0 0
215 1 5.6585735 24.03429539404 8.48786025 0 0 0
216 1 7.073216875 25.448937423841 9.902503625 0 0 0
278 1 9.902503624999982 22.487638414681157 7.073216875000009 0 0 0
280 1 9.90250362499998 22.487638414681182 9.902503625000026 0 0 0
285 1 8.48786025 24.03429539404 5.6585735 0 0 0
286 1 9.902503625 25.448937423841 7.073216875 0 0 0
287 1 8.48786025 24.03429539404 8.48786025 0 0 0
288 1 9.902503625 25.448937423841 9.902503625 0 0 0

Velocities

1 0 0 0
2 0 0 0
3 0 0 0
4 0 0 0
9 0 0 0
10 0 0 0
11 0 0 0
12 0 0 0
73 0 0 0
74 0 0 0
75 0 0 0
76 0 0 0
81 0 0 0
82 0 0 0
83 0 0 0
84 0 0 0
145 0 0 0
146 0 0 0
147 0 0 0
148 0 0 0
153 0 0 0
154 0 0 0
155 0 0 0
156 0 0 0
217 0 0 0
218 0 0 0
219 0 0 0
220 0 0 0
225 0 0 0
226 0 0 0
227 0 0 0
228 0 0 0
17 0 0 0
18 0 0 0
19 0 0 0
20 0 0 0
25 0 0 0
27 0 0 0
89 0 0 0
90 0 0 0
91 0 0 0
92 0 0 0
97 0 0 0
99 0 0 0
161 0 0 0
162 0 0 0
163 0 0 0
164 0 0 0
169 0 0 0
171 0 0 0
233 0 0 0
234 0 0 0
235 0 0 0
236 0 0 0
241 0 0 0
243 0 0 0
26 0 0 0
28 0 0 0
33 0 0 0
34 0 0 0
35 0 0 0
36 0 0 0
98 0 0 0
100 0 0 0
105 0 0 0
106 0 0 0
107 0 0 0
108 0 0 0
170 0 0 0
172 0 0 0
177 0 0 0
178 0 0 0
179 0 0 0
180 0 0 0
242 0 0 0
244 0 0 0
249 0 0 0
250 0 0 0
251 0 0 0
252 0 0 0
41 0 0 0
42 0 0 0
43 0 0 0
44 0 0 0
113 0 0 0
114 0 0 0
115 0 0 0
116 0 0 0
185 0 0 0
186 0 0 0
187 0 0 0
188 0 0 0
257 0 0 0
258 0 0 0
259 0 0 0
260 0 0 0
49 0 0 0
50 0 0 0
51 0 0 0
52 0 0 0
57 0 0 0
59 0 0 0
121 0 0 0
122 0 0 0
123 0 0 0
124 0 0 0
129 0 0 0
131 0 0 0
193 0 0 0
194 0 0 0
195 0 0 0
196 0 0 0
201 0 0 0
203 0 0 0
265 0 0 0
266 0 0 0
267 0 0 0
268 0 0 0
273 0 0 0
275 0 0 0
58 0 0 0
60 0 0 0
65 0 0 0
66 0 0 0
67 0 0 0
68 0 0 0
130 0 0 0
132 0 0 0
137 0 0 0
138 0 0 0
139 0 0 0
140 0 0 0
202 0 0 0
204 0 0 0
209 0 0 0
210 0 0 0
211 0 0 0
212 0 0 0
274 0 0 0
276 0 0 0
281 0 0 0
282 0 0 0
283 0 0 0
284 0 0 0
5 0 0 0
6 0 0 0
7 0 0 0
8 0 0 0
13 0 0 0
14 0 0 0
15 0 0 0
16 0 0 0
77 0 0 0
78 0 0 0
79 0 0 0
80 0 0 0
85 0 0 0
86 0 0 0
87 0 0 0
88 0 0 0
149 0 0 0
150 0 0 0
151 0 0 0
152 0 0 0
157 0 0 0
158 0 0 0
159 0 0 0
160 0 0 0
221 0 0 0
222 0 0 0
223 0 0 0
224 0 0 0
229 0 0 0
230 0 0 0
231 0 0 0
232 0 0 0
21 0 0 0
22 0 0 0
23 0 0 0
24 0 0 0
29 0 0 0
31 0 0 0
93 0 0 0
94 0 0 0
95 0 0 0
96 0 0 0
101 0 0 0
103 0 0 0
165 0 0 0
166 0 0 0
167 0 0 0
168 0 0 0
173 0 0 0
175 0 0 0
237 0 0 0
238 0 0 0
239 0 0 0
240 0 0 0
245 0 0 0
247 0 0 0
30 0 0 0
32 0 0 0
37 0 0 0
38 0 0 0
39 0 0 0
40 0 0 0
102 0 0 0
104 0 0 0
109 0 0 0
110 0 0 0
111 0 0 0
112 0 0 0
174 0 0 0
176 0 0 0
181 0 0 0
182 0 0 0
183 0 0 0
184 0 0 0
246 0 0 0
248 0 0 0
253 0 0 0
254 0 0 0
255 0 0 0
256 0 0 0
45 0 0 0
46 0 0 0
47 0 0 0
48 0 0 0
117 0 0 0
118 0 0 0
119 0 0 0
120 0 0 0
189 0 0 0
190 0 0 0
191 0 0 0
192 0 0 0
261 0 0 0
262 0 0 0
263 0 0 0
264 0 0 0
53 0 0 0
54 0 0 0
55 0 0 0
56 0 0 0
61 0 0 0
63 0 0 0
125 0 0 0
126 0 0 0
127 0 0 0
128 0 0 0
133 0 0 0
135 0 0 0
197 0 0 0
198 0 0 0
199 0 0 0
200 0 0 0
205 0 0 0
207 0 0 0
269 0 0 0
270 0 0 0
271 0 0 0
272 0 0 0
277 0 0 0
279 0 0 0
62 0 0 0
64 0 0 0
69 0 0 0
70 0 0 0
71 0 0 0
72 0 0 0
134 0 0 0
136 0 0 0
141 0 0 0
142 0 0 0
143 0 0 0
144 0 0 0
206 0 0 0
208 0 0 0
213 0 0 0
214 0 0 0
215 0 0 0
216 0 0 0
278 0 0 0
280 0 0 0
285 0 0 0
286 0 0 0
287 0 0 0
288 0 0 0
