LAMMPS data file via write_data, version 29 Aug 2024, timestep = 16, units = metal

256 atoms
2 atom types

0 14.06520962 xlo xhi
0 25.66401269 ylo yhi
0 8.12055266 zlo zhi

Masses

1 55.8
2 1

Atoms # atomic

14 1 1.057837382915 0.882609793183 6.031986631378 0 0 0
20 1 2.25573232562 1.447644730203 4.014404140079 0 0 0
119 1 2.244360603642 3.952166145731 8.064109215832 0 0 0
162 1 4.60370373332 3.201606388904 8.068442342731 0 0 0
164 1 3.418738515862 2.324412972245 1.977215467643 0 0 0
165 1 1.074861068727 3.19086264902 1.957023713454 0 0 0
171 1 4.591949718945 0.910111628979 4.018430797321 0 0 0
207 1 4.594340382624 3.209464162834 4.011853880516 0 0 0
209 1 3.426008119455 2.326209894442 6.036804230449 0 0 0
210 1 1.081883405934 3.179405063333 6.024229960683 0 0 0
211 1 2.253355164542 3.953160954879 4.005300432108 0 0 0
227 1 4.593113052432 0.910667836943 8.072870642508 0 0 0
230 1 1.069909552332 0.885056909312 1.980914216969 0 0 0
231 1 2.245764874171 1.436182171713 8.062433620996 0 0 0
16 1 8.109115727815 3.202888874678 6.027256896687 0 0 0
21 1 9.274888966746 3.965174251251 4.007438898446 0 0 0
25 1 6.930309524998 2.323694650918 4.010853915662 0 0 0
124 1 8.122515793672 3.208139656878 1.966794037592 0 0 0
125 1 9.297242101135 3.958866499871 8.056910427104 0 0 0
159 1 8.11083379317 0.898923817829 6.045176357831 0 0 0
160 1 9.274785306151 1.454175263136 4.000623562215 0 0 0
163 1 5.759295448311 3.956795327614 1.977751830146 0 0 0
168 1 8.0965370702 0.910650183494 1.979660403638 0 0 0
169 1 9.278640861412 1.456335448559 8.081283859885 0 0 0
172 1 5.742404960035 1.435417106043 6.045955118831 0 0 0
206 1 6.93382892175 2.31972088441 8.074350450819 0 0 0
208 1 5.771856665066 3.95392726375 6.049292584768 0 0 0
228 1 5.752460178392 1.422503732412 1.988217192387 0 0 0
1 1 11.630877262625 3.217544718318 3.977814716315 0 0 0
7 1 12.794040842563 3.956175965058 6.021759444947 0 0 0
11 1 10.452361787691 2.343884726503 6.028276756895 0 0 0
33 1 11.607959972679 0.912363562609 4.014394639032 0 0 0
36 1 12.802098379198 1.473576403598 6.01991250645 0 0 0
120 1 13.966959911241 2.329760724094 8.068561877266 0 0 0
121 1 11.629189718775 3.20945521179 8.058433193139 0 0 0
122 1 12.801934519506 3.956410929978 1.96886697107 0 0 0
123 1 10.462057921247 2.332371196787 1.958851649858 0 0 0
166 1 12.796014894733 1.441792984817 1.969021342776 0 0 0
213 1 13.964454616104 2.329442216092 3.985067750334 0 0 0
233 1 11.607715519335 0.915017298683 8.049571315227 0 0 0
12 1 3.4211584450829196 4.834295508428782 1.972504825331385 0 0 0
19 1 1.077973870304803 5.654917392904624 1.9694669366206505 0 0 0
28 1 2.248084526402284 6.464608165630014 8.064694990154653 0 0 0
31 1 4.595854777558376 5.659472185690855 8.066669032423635 0 0 0
72 1 4.595882741075156 5.658198962784786 4.002400265352284 0 0 0
74 1 3.4252922835472974 4.82885843409799 6.037263828472897 0 0 0
75 1 1.0800875400138645 5.643809610444567 6.029416020158522 0 0 0
76 1 2.251776461516671 6.463771172466238 3.9998361173140706 0 0 0
106 1 4.59446867582723 8.15156529823466 3.9964738802193702 0 0 0
108 1 3.4273866767704164 7.288154602205674 6.035733999792853 0 0 0
109 1 1.0904601654124597 8.135581978889029 6.03294126537369 0 0 0
201 1 4.587919709825974 8.158696876536176 8.07073452386245 0 0 0
203 1 3.4205883146638176 7.306329879268876 1.9707892203428394 0 0 0
204 1 1.0803983149621676 8.154372474097809 1.9760588611599756 0 0 0
5 1 5.766010727359387 6.478819161951567 1.972269876988623 0 0 0
69 1 8.112374219861902 5.668838695439342 1.9720671878786813 0 0 0
70 1 9.283849127136438 6.4832725743378115 8.058891962497935 0 0 0
71 1 6.945068906988805 4.840134150902136 8.06831591522826 0 0 0
73 1 5.769252954115735 6.4664406740010145 6.032922980699663 0 0 0
81 1 8.11522147261702 5.660311076842146 6.028524897993246 0 0 0
130 1 8.105066878285575 8.178661948878508 1.9753213136124494 0 0 0
132 1 6.934233103112657 7.311313016573144 8.070224737820414 0 0 0
188 1 8.14734828391231 8.132651093739813 6.007161414399277 0 0 0
190 1 6.942951839135246 7.311426686488854 3.9953604794948814 0 0 0
199 1 9.28811677738677 6.492946303423525 3.996550384610598 0 0 0
200 1 6.937809734603984 4.838939417637676 4.00199260071243 0 0 0
32 1 13.970585422107215 4.835257345077194 8.056700040199285 0 0 0
35 1 11.628143754585603 5.664516300800609 8.058712972390252 0 0 0
38 1 12.797544291913182 6.472916450534056 1.967571311105983 0 0 0
68 1 10.454164331820184 4.847650222907987 1.969497459834244 0 0 0
77 1 13.972990380596254 4.835153560725778 3.996172675905203 0 0 0
78 1 11.627720526925318 5.668668289547575 3.994649948703708 0 0 0
79 1 12.803485800020209 6.467458852720684 6.027266839882492 0 0 0
80 1 10.457075955572018 4.845561676177561 6.0256314885934765 0 0 0
111 1 13.975680401322705 7.303162571143418 3.9974017101530217 0 0 0
112 1 11.628429260513546 8.17177765646562 3.9899720239735874 0 0 0
126 1 13.96957867590792 7.314951482399324 8.06246011450498 0 0 0
127 1 11.6235115195228 8.176526016607717 8.059600708584925 0 0 0
129 1 10.453649552334545 7.330546368807401 1.9663141079546393 0 0 0
187 1 10.463735516012841 7.325137614140184 6.025570358498858 0 0 0
51 1 4.598360126598952 10.702179095115246 3.9685248473833563 0 0 0
53 1 3.433315161858992 9.772029931997444 6.0572846218098855 0 0 0
54 1 1.1628303486834113 10.636209111667485 6.06393371199336 0 0 0
64 1 3.358208822603118 12.755503188733325 6.0486901178783725 0 0 0
110 1 2.2594808456947866 8.948079529078349 3.99275190444983 0 0 0
152 1 3.425493349097255 9.83414202323144 1.9768941915886944 0 0 0
153 1 1.1093020645428988 10.731643171437335 1.9764559043844128 0 0 0
154 1 2.2384070805097664 11.413527157751686 8.089872549913753 0 0 0
177 1 2.202372963178554 11.4496394460913 3.994619579087605 0 0 0
191 1 4.581335730846644 10.722251638150663 8.075555262568972 0 0 0
195 1 3.373888433052118 12.519631618084368 2.0719618136590463 0 0 0
205 1 2.2430984732155177 8.959692628572531 8.080164744970574 0 0 0
243 2 3.517779661515004 12.541837418011246 7.793695828082384 0 0 0
251 2 0.46486753130050396 11.358702292987314 4.678342310623994 0 0 0
252 2 3.463527386422678 11.267688785138247 5.174021459402086 0 0 0
3 1 6.940353872811155 9.844445704352044 3.997083741649839 0 0 0
40 1 6.9471384751315455 12.53630215787784 8.014070666400205 0 0 0
48 1 8.094552072515896 10.750430860725665 1.9955251272393915 0 0 0
49 1 9.236091442238456 11.458763348308228 8.097129056750502 0 0 0
50 1 6.915034356358744 9.87872842214312 8.110113122340492 0 0 0
52 1 5.7518278453456615 11.44001183563569 6.025579133065029 0 0 0
98 1 6.922253405549251 12.639654523158766 4.001507234588623 0 0 0
107 1 5.722211703046975 8.94857491407604 6.0179026349258455 0 0 0
131 1 9.227064108221116 8.959441983476372 8.062277622419042 0 0 0
184 1 8.14986386361617 10.86666218358997 6.00692412909981 0 0 0
185 1 9.285137026085101 11.46505282155191 3.974482000947415 0 0 0
189 1 9.30194716363322 9.010635860647707 3.9926199456908598 0 0 0
192 1 5.755004835198544 11.414715657379238 1.9824435898058363 0 0 0
202 1 5.757552539419507 8.981456236212354 1.9797839842757137 0 0 0
242 2 8.57188055979079 12.632331413044442 5.0936799592213875 0 0 0
247 2 7.259168131147075 9.50740964793823 6.4726710821896 0 0 0
254 2 5.305499566955112 12.671756476999295 4.798551445262934 0 0 0
256 2 7.036125432663271 12.629102933453458 2.186185350454239 0 0 0
34 1 10.41658065590723 12.699526441869656 2.091771685788595 0 0 0
66 1 13.965746966665636 12.797999225845547 3.9256944499926596 0 0 0
96 1 10.445109802546513 12.694889281609738 5.923579978224269 0 0 0
128 1 12.821828797110868 8.941191515753285 2.013307059391123 0 0 0
155 1 13.939183039124195 9.878807479625868 8.093000832126627 0 0 0
156 1 11.720765756314718 11.760286655220991 8.007862629239508 0 0 0
157 1 12.862714767493028 11.4334791786254 2.0415901960028116 0 0 0
158 1 10.465930300692564 9.913820657478452 1.9362283804480214 0 0 0
179 1 13.98239465444027 9.812986889633216 3.978136252102574 0 0 0
181 1 11.604022669377567 10.748361852046825 3.9835552969850454 0 0 0
182 1 12.887745217472846 11.434727913021641 5.91087071976521 0 0 0
183 1 10.478464770560258 9.93017680707815 6.052059180524162 0 0 0
186 1 12.83268444099616 8.919391898203692 5.977781352405431 0 0 0
197 1 14.052877187181892 12.817868295783088 0.01830316936609222 0 0 1
244 2 12.25344446408957 12.65205018141054 3.187516285051787 0 0 0
245 2 0.08858962208810084 11.37638293901309 7.176161585085381 1 0 0
246 2 10.527149277458477 12.864662896296974 0.357363123204252 0 0 0
248 2 10.430461627858296 10.179684428435117 0.0851502170346411 0 0 0
253 2 12.090045794936929 10.209378798081609 6.8727052537956235 0 0 0
255 2 12.372718179161051 10.207688013312353 0.9077805116464267 0 0 0
63 1 2.219666328225646 13.856881807784818 4.003924380471901 0 0 0
65 1 4.568487832658787 14.55423061157484 4.0021823625254696 0 0 0
67 1 1.0584610580658182 14.536483806607372 6.0413559541259945 0 0 0
89 1 2.2289565106061455 16.295776043894964 8.059266077432312 0 0 0
90 1 3.396533657827179 15.475593426097612 2.006084535676044 0 0 0
174 1 2.231229574887777 16.294222787218587 4.000662935169453 0 0 0
175 1 3.3978687621669525 15.446889931051732 6.016375196486906 0 0 0
194 1 2.253076089288711 13.838155275530944 8.076994668100479 0 0 0
196 1 4.568219406800556 14.611499167929743 8.005184285764486 0 0 0
198 1 1.0531522301766487 14.537070327089614 1.974304191262564 0 0 0
250 2 3.599862430769866 13.995466857670653 1.1838236029939786 0 0 0
24 1 9.222068460483225 13.85213235953203 8.029237215673913 0 0 0
41 1 8.10183297795362 14.52817824877207 1.9718111968370577 0 0 0
43 1 9.260859097878807 16.283383157365115 3.981471894665933 0 0 0
46 1 6.917353271509393 15.436350656290013 3.990752584186263 0 0 0
62 1 5.7527488899614365 13.853095968026222 6.011207099003278 0 0 0
88 1 5.75016183246723 16.305816915326176 1.9718978543677559 0 0 0
95 1 9.253303144359764 13.848569137242789 3.9973357661125255 0 0 0
99 1 8.077585152334773 14.539190173233303 6.015422961896336 0 0 0
101 1 9.254631756681157 16.281835119690324 8.058828934528895 0 0 0
104 1 6.943663226733025 15.457292841664232 8.038893550180783 0 0 0
173 1 5.751469897840956 16.300942165608227 6.019977229708189 0 0 0
193 1 5.7407553303869765 13.838878711676838 1.999884157861141 0 0 0
249 2 6.096214086692555 13.974823164180728 0.2905521192487214 0 0 0
9 1 12.792554705889296 13.811347392123816 1.9617607932222618 0 0 0
39 1 11.609621569488398 14.44417929019254 8.113496261926283 0 0 0
42 1 12.828737364161972 16.282955783061063 5.987597469915428 0 0 0
44 1 10.390177446491178 15.393851945906539 5.973765294065492 0 0 0
92 1 13.96702737388141 15.40775494657166 8.074613428086108 0 0 0
94 1 12.76585012982641 13.810806307299444 6.0437060311998705 0 0 0
97 1 11.609958700953289 14.521831849954772 3.9867954117166335 0 0 0
100 1 12.781589013310475 16.261861965969967 1.9706936936901103 0 0 0
102 1 10.425896411948377 15.407733626524255 1.977979114026614 0 0 0
178 1 13.961854458682643 15.421251394664546 3.9939275138366317 0 0 0
241 2 11.635295628004245 15.769042639547772 7.069463700197436 0 0 0
91 1 4.576035221301171 17.118962734772154 8.052995034731955 0 0 0
93 1 1.0611886470278693 17.09611736705205 1.9687631100249017 0 0 0
114 1 2.2353860930843013 18.776238233575395 8.056044881446661 0 0 0
115 1 3.40451293101128 17.963511103828957 1.966635847422886 0 0 0
116 1 4.581305548427391 19.622769472993006 8.058028567384103 0 0 0
118 1 1.0629713794092484 19.605824412331472 1.9649770224806455 0 0 0
134 1 2.234544213531457 18.77544748399036 3.995947730388038 0 0 0
135 1 3.4076757225089667 17.958256276747065 6.025032446774973 0 0 0
136 1 4.580613531827246 19.61921184568193 3.997074971994426 0 0 0
138 1 1.06480587125436 19.6084561046327 6.023667758276829 0 0 0
176 1 4.5773813245573765 17.107426411738086 3.9980752663181867 0 0 0
180 1 1.068556737409344 17.103094955226208 6.0264473369071725 0 0 0
220 1 2.236767570609454 21.262347194934275 8.05566222411568 0 0 0
222 1 3.408399250157823 20.44075097182267 1.9673888186126371 0 0 0
223 1 2.2348832452549368 21.260427882115422 3.9917541033041797 0 0 0
224 1 3.4098891622264103 20.4387585954002 6.025153140954282 0 0 0
10 1 9.268553806366395 21.27014628471049 3.996589365483211 0 0 0
23 1 6.924604684571551 20.446636860026487 3.9978180609188643 0 0 0
47 1 8.095146393264667 17.103467619576662 6.0197213718620635 0 0 0
59 1 9.27176297543356 21.27521433705104 8.05911104038534 0 0 0
83 1 9.26722713937659 18.773964792419143 3.993875871083853 0 0 0
86 1 6.923628348021559 17.959948144366304 3.9944136967894197 0 0 0
87 1 8.09702915164455 19.61634850741875 6.027481321922319 0 0 0
105 1 8.090041772652716 17.09936284941963 1.960729546104301 0 0 0
113 1 5.753020191446711 18.78520280968905 1.9659983180061666 0 0 0
133 1 5.752028226607763 18.78364618507363 6.026397814250624 0 0 0
147 1 9.269845233070333 18.775981541059412 8.057098125314878 0 0 0
150 1 6.924625098027432 17.96441460857936 8.053258812530306 0 0 0
151 1 8.09648647672743 19.618534737294873 1.9665505759153972 0 0 0
217 1 6.926832175999594 20.44694564570577 8.059202509887632 0 0 0
218 1 5.753657665220558 21.274615993219772 1.9713023602329856 0 0 0
221 1 5.75261961720972 21.276459261441246 6.029008997916849 0 0 0
6 1 12.786974816144737 21.265089146670288 6.026488444247 0 0 0
15 1 10.440373254541136 20.439407602617873 6.026586789629781 0 0 0
45 1 11.615145895828876 17.088889197785782 3.9871152766165046 0 0 0
56 1 13.958227450280699 20.431186478302727 8.053904948802906 0 0 0
58 1 12.784332602838113 21.254777646667854 1.9623516283730122 0 0 0
60 1 10.439618223583276 20.437446060873125 1.967633383991813 0 0 0
82 1 12.788392205056743 18.769550714297104 6.023557968697219 0 0 0
84 1 10.438115711358398 17.953974897697673 6.0168319880796215 0 0 0
85 1 11.612701972893502 19.605825756061574 3.994271356438083 0 0 0
103 1 11.607996079424838 17.126417458759374 8.091606231254705 0 0 0
117 1 13.960148469535444 17.941264239353167 8.059204962041656 0 0 0
137 1 13.95694626343082 17.940606609820342 3.9935859229929767 0 0 0
146 1 12.784988534364095 18.759922195927615 1.9658083580625605 0 0 0
148 1 10.436891319784412 17.946761389065365 1.9709721140532042 0 0 0
149 1 11.61298239926204 19.613402807266013 8.057768416334987 0 0 0
226 1 13.956035491320597 20.42706914229661 3.993820967079634 0 0 0
2 1 1.076727381391 22.086469888427 6.014516399208 0 0 0
4 1 3.40994705659 25.468465186677 6.018819642473 0 0 0
13 1 2.231707400416 23.819436872092 8.061255166394 0 0 0
17 1 3.400807342726 22.960067222931 1.978711111032 0 0 0
22 1 4.573483505235 24.417418863688 8.061385988497 0 0 0
30 1 1.048241393652 24.392818409533 1.955998087653 0 0 0
55 1 4.583388647805 22.108692099769 8.068630089909 0 0 0
57 1 1.05661244381 22.086834146213 1.962799781355 0 0 0
139 1 2.215835795925 23.836208145932 4.004391742266 0 0 0
140 1 3.405626364846 22.956368701043 6.018140358243 0 0 0
141 1 4.577589421227 24.401967620282 3.996477126821 0 0 0
143 1 1.058017558251 24.387563649091 6.048239430294 0 0 0
225 1 4.575138277146 22.108764702686 3.997607182929 0 0 0
229 1 3.394482639917 25.467230937087 1.985170036207 0 0 0
8 1 5.764516735426 23.855935750881 1.957580620955 0 0 0
27 1 8.098971336029 22.103884394275 6.036138669953 0 0 0
145 1 9.278891784752 23.840725439758 4.00373706331 0 0 0
161 1 6.939146555551 25.477497536567 4.006002941119 0 0 0
170 1 6.937718936774 25.480692313558 8.054253869507 0 0 0
215 1 6.92729760101 22.969423550906 3.993871809911 0 0 0
216 1 8.100270680094 24.400166222563 6.027167976635 0 0 0
219 1 8.100162096675 22.113224312002 1.958446921513 0 0 0
235 1 9.283640762128 23.886751710928 8.076086706183 0 0 0
238 1 6.935354434385 22.972930868536 8.07316631183 0 0 0
239 1 8.098209564276 24.414094047911 1.995625734989 0 0 0
240 1 5.744090534756 23.855448167592 6.033969020693 0 0 0
18 1 11.617012904198 22.089855621035 3.995117746306 0 0 0
26 1 13.958898717652 22.969825850631 8.04507131097 0 0 0
29 1 13.950212044191 25.479561746901 3.992627010394 0 0 0
37 1 10.444634783482 25.496639096737 6.03736714716 0 0 0
61 1 11.60650605196 22.10103274066 8.055540246254 0 0 0
142 1 13.957838200847 22.959328015833 3.993168326434 0 0 0
144 1 12.776089696829 23.84713687407 6.016990569192 0 0 0
167 1 10.442632460241 25.507563597992 1.981290523379 0 0 0
212 1 10.437962810647 22.98024660699 6.034886237116 0 0 0
214 1 11.622113933771 24.399369330956 3.997829767278 0 0 0
232 1 13.943125850932 25.497755988187 8.066013891458 0 0 0
234 1 12.783040582771 23.817976359987 1.975268646348 0 0 0
236 1 10.450743022716 22.977436476275 1.967506534883 0 0 0
237 1 11.635301333659 24.410247087868 8.073659229376 0 0 0

Velocities

14 0 0 0
20 0 0 0
119 0 0 0
162 0 0 0
164 0 0 0
165 0 0 0
171 0 0 0
207 0 0 0
209 0 0 0
210 0 0 0
211 0 0 0
227 0 0 0
230 0 0 0
231 0 0 0
16 0 0 0
21 0 0 0
25 0 0 0
124 0 0 0
125 0 0 0
159 0 0 0
160 0 0 0
163 0 0 0
168 0 0 0
169 0 0 0
172 0 0 0
206 0 0 0
208 0 0 0
228 0 0 0
1 0 0 0
7 0 0 0
11 0 0 0
33 0 0 0
36 0 0 0
120 0 0 0
121 0 0 0
122 0 0 0
123 0 0 0
166 0 0 0
213 0 0 0
233 0 0 0
12 0 0 0
19 0 0 0
28 0 0 0
31 0 0 0
72 0 0 0
74 0 0 0
75 0 0 0
76 0 0 0
106 0 0 0
108 0 0 0
109 0 0 0
201 0 0 0
203 0 0 0
204 0 0 0
5 0 0 0
69 0 0 0
70 0 0 0
71 0 0 0
73 0 0 0
81 0 0 0
130 0 0 0
132 0 0 0
188 0 0 0
190 0 0 0
199 0 0 0
200 0 0 0
32 0 0 0
35 0 0 0
38 0 0 0
68 0 0 0
77 0 0 0
78 0 0 0
79 0 0 0
80 0 0 0
111 0 0 0
112 0 0 0
126 0 0 0
127 0 0 0
129 0 0 0
187 0 0 0
51 0 0 0
53 0 0 0
54 0 0 0
64 0 0 0
110 0 0 0
152 0 0 0
153 0 0 0
154 0 0 0
177 0 0 0
191 0 0 0
195 0 0 0
205 0 0 0
243 0 0 0
251 0 0 0
252 0 0 0
3 0 0 0
40 0 0 0
48 0 0 0
49 0 0 0
50 0 0 0
52 0 0 0
98 0 0 0
107 0 0 0
131 0 0 0
184 0 0 0
185 0 0 0
189 0 0 0
192 0 0 0
202 0 0 0
242 0 0 0
247 0 0 0
254 0 0 0
256 0 0 0
34 0 0 0
66 0 0 0
96 0 0 0
128 0 0 0
155 0 0 0
156 0 0 0
157 0 0 0
158 0 0 0
179 0 0 0
181 0 0 0
182 0 0 0
183 0 0 0
186 0 0 0
197 0 0 0
244 0 0 0
245 0 0 0
246 0 0 0
248 0 0 0
253 0 0 0
255 0 0 0
63 0 0 0
65 0 0 0
67 0 0 0
89 0 0 0
90 0 0 0
174 0 0 0
175 0 0 0
194 0 0 0
196 0 0 0
198 0 0 0
250 0 0 0
24 0 0 0
41 0 0 0
43 0 0 0
46 0 0 0
62 0 0 0
88 0 0 0
95 0 0 0
99 0 0 0
101 0 0 0
104 0 0 0
173 0 0 0
193 0 0 0
249 0 0 0
9 0 0 0
39 0 0 0
42 0 0 0
44 0 0 0
92 0 0 0
94 0 0 0
97 0 0 0
100 0 0 0
102 0 0 0
178 0 0 0
241 0 0 0
91 0 0 0
93 0 0 0
114 0 0 0
115 0 0 0
116 0 0 0
118 0 0 0
134 0 0 0
135 0 0 0
136 0 0 0
138 0 0 0
176 0 0 0
180 0 0 0
220 0 0 0
222 0 0 0
223 0 0 0
224 0 0 0
10 0 0 0
23 0 0 0
47 0 0 0
59 0 0 0
83 0 0 0
86 0 0 0
87 0 0 0
105 0 0 0
113 0 0 0
133 0 0 0
147 0 0 0
150 0 0 0
151 0 0 0
217 0 0 0
218 0 0 0
221 0 0 0
6 0 0 0
15 0 0 0
45 0 0 0
56 0 0 0
58 0 0 0
60 0 0 0
82 0 0 0
84 0 0 0
85 0 0 0
103 0 0 0
117 0 0 0
137 0 0 0
146 0 0 0
148 0 0 0
149 0 0 0
226 0 0 0
2 0 0 0
4 0 0 0
13 0 0 0
17 0 0 0
22 0 0 0
30 0 0 0
55 0 0 0
57 0 0 0
139 0 0 0
140 0 0 0
141 0 0 0
143 0 0 0
225 0 0 0
229 0 0 0
8 0 0 0
27 0 0 0
145 0 0 0
161 0 0 0
170 0 0 0
215 0 0 0
216 0 0 0
219 0 0 0
235 0 0 0
238 0 0 0
239 0 0 0
240 0 0 0
18 0 0 0
26 0 0 0
29 0 0 0
37 0 0 0
61 0 0 0
142 0 0 0
144 0 0 0
167 0 0 0
212 0 0 0
214 0 0 0
232 0 0 0
234 0 0 0
236 0 0 0
237 0 0 0
