LAMMPS data file via write_data, version 29 Aug 2024, timestep = 36, units = metal

256 atoms
2 atom types

0 14.06520962 xlo xhi
0 29.56401269 ylo yhi
0 8.12055266 zlo zhi

Masses

1 55.8
2 1

Atoms # atomic

12 1 3.4214954842424317 4.796813324535594 1.9732623668293632 0 0 0
14 1 1.057837382915 0.882609793183 6.031986631378 0 0 0
20 1 2.25573232562 1.447644730203 4.014404140079 0 0 0
74 1 3.421776228993667 4.7900774816017995 6.037363422274661 0 0 0
119 1 2.244360603642 3.952166145731 8.064109215832 0 0 0
162 1 4.60370373332 3.201606388904 8.068442342731 0 0 0
164 1 3.418738515862 2.324412972245 1.977215467643 0 0 0
165 1 1.074861068727 3.19086264902 1.957023713454 0 0 0
171 1 4.591949718945 0.910111628979 4.018430797321 0 0 0
207 1 4.594340382624 3.209464162834 4.011853880516 0 0 0
209 1 3.426008119455 2.326209894442 6.036804230449 0 0 0
210 1 1.081883405934 3.179405063333 6.024229960683 0 0 0
211 1 2.253355164542 3.953160954879 4.005300432108 0 0 0
227 1 4.593113052432 0.910667836943 8.072870642508 0 0 0
230 1 1.069909552332 0.885056909312 1.980914216969 0 0 0
231 1 2.245764874171 1.436182171713 8.062433620996 0 0 0
16 1 8.109115727815 3.202888874678 6.027256896687 0 0 0
21 1 9.274888966746 3.965174251251 4.007438898446 0 0 0
25 1 6.930309524998 2.323694650918 4.010853915662 0 0 0
71 1 6.942820691500373 4.799880892205225 8.067476928557724 0 0 0
124 1 8.122515793672 3.208139656878 1.966794037592 0 0 0
125 1 9.297242101135 3.958866499871 8.056910427104 0 0 0
159 1 8.11083379317 0.898923817829 6.045176357831 0 0 0
160 1 9.274785306151 1.454175263136 4.000623562215 0 0 0
163 1 5.759295448311 3.956795327614 1.977751830146 0 0 0
168 1 8.0965370702 0.910650183494 1.979660403638 0 0 0
169 1 9.278640861412 1.456335448559 8.081283859885 0 0 0
172 1 5.742404960035 1.435417106043 6.045955118831 0 0 0
200 1 6.934836150234693 4.796928870878278 4.002911646040906 0 0 0
206 1 6.93382892175 2.31972088441 8.074350450819 0 0 0
208 1 5.771856665066 3.95392726375 6.049292584768 0 0 0
228 1 5.752460178392 1.422503732412 1.988217192387 0 0 0
1 1 11.630877262625 3.217544718318 3.977814716315 0 0 0
7 1 12.794040842563 3.956175965058 6.021759444947 0 0 0
11 1 10.452361787691 2.343884726503 6.028276756895 0 0 0
32 1 13.968883464916669 4.804580339629158 8.053932106451283 0 0 0
33 1 11.607959972679 0.912363562609 4.014394639032 0 0 0
36 1 12.802098379198 1.473576403598 6.01991250645 0 0 0
68 1 10.455355278621655 4.8048973318665995 1.969227578399736 0 0 0
77 1 13.972402497273185 4.799646309170354 3.9989649146156747 0 0 0
80 1 10.457862241601207 4.802451423655057 6.025034264138115 0 0 0
120 1 13.966959911241 2.329760724094 8.068561877266 0 0 0
121 1 11.629189718775 3.20945521179 8.058433193139 0 0 0
122 1 12.801934519506 3.956410929978 1.96886697107 0 0 0
123 1 10.462057921247 2.332371196787 1.958851649858 0 0 0
166 1 12.796014894733 1.441792984817 1.969021342776 0 0 0
213 1 13.964454616104 2.329442216092 3.985067750334 0 0 0
233 1 11.607715519335 0.915017298683 8.049571315227 0 0 0
19 1 1.0799466296645617 5.592110132863039 1.9672076009863209 0 0 0
28 1 2.2541063542070345 6.394320669378883 8.06177715497493 0 0 0
31 1 4.5958852406299515 5.599568441219593 8.06763224986745 0 0 0
53 1 3.455436670560661 9.619854220779809 6.07441147931384 0 0 0
72 1 4.5930928117775265 5.603773782659563 4.0040845613670335 0 0 0
75 1 1.0759611709310668 5.597383265646245 6.029895497701138 0 0 0
76 1 2.250376506239469 6.389203407510621 4.000447262717852 0 0 0
106 1 4.598955529110141 8.034663524591341 4.00192305266413 0 0 0
108 1 3.4267626821058244 7.201020386820255 6.036120047349419 0 0 0
109 1 1.0895804755242042 8.033098571049464 6.020559271672779 0 0 0
110 1 2.2327930605170963 8.78734228026722 3.964232440088196 0 0 0
152 1 3.448114392681004 9.683589894506413 1.9658932330387386 0 0 0
201 1 4.596334611502768 8.0326295104287 8.071258161625584 0 0 0
203 1 3.431939174065833 7.227078416274613 1.9741586433999585 0 0 0
204 1 1.0925397162181671 8.013207692928711 1.958346481874794 0 0 0
205 1 2.2815480950101854 8.81846521683298 8.064368339329713 0 0 0
3 1 6.968135236641369 9.651293651406736 4.004008399909725 0 0 0
5 1 5.766467734110887 6.411477124211578 1.9740470463913984 0 0 0
50 1 6.919158483206701 9.6986002865214 8.115957326241377 0 0 0
69 1 8.108644058881202 5.605553345574402 1.9712779998127499 0 0 0
70 1 9.274619437160945 6.407258381433825 8.060150663664807 0 0 0
73 1 5.765475042273905 6.398520502470479 6.0329356920595885 0 0 0
81 1 8.110727384236402 5.59659874147892 6.0295881185270295 0 0 0
107 1 5.729843558126225 8.825554480047376 6.028565308661387 0 0 0
130 1 8.103281857724657 8.044784169519692 1.9824646194303748 0 0 0
131 1 9.194300022497613 8.836318013412509 8.053924324375798 0 0 0
132 1 6.929715680127936 7.225709744346343 8.068359152335141 0 0 0
188 1 8.133560574748728 8.001069122693563 6.008934948049034 0 0 0
189 1 9.302068545233789 8.859238635784557 4.000790262724037 0 0 0
190 1 6.9369615402725415 7.218924381263072 3.9972109059812992 0 0 0
199 1 9.280205260993291 6.41115633422959 3.997569699387571 0 0 0
202 1 5.761875455336361 8.851700900535535 1.9814048100582133 0 0 0
247 2 7.252998424109408 9.373257125683207 6.482372050975509 0 0 0
35 1 11.627137697891495 5.608967702998218 8.05361192196698 0 0 0
38 1 12.80135302761591 6.3963674037705465 1.9675540518912045 0 0 0
78 1 11.629366359849795 5.611838267218915 3.9984575513576512 0 0 0
79 1 12.803345887360997 6.427360463080541 6.0272359479932405 0 0 0
111 1 13.975876276899426 7.227050843985152 3.999520366583429 0 0 0
112 1 11.635463901327524 8.047781472904667 4.00536208344397 0 0 0
126 1 13.983330420318772 7.244458901102624 8.049124535906596 0 0 0
127 1 11.612659758033908 8.013316038870258 8.038297277137922 0 0 0
128 1 12.834590495942715 8.799595334777273 2.0138571839266253 0 0 0
129 1 10.448536220073796 7.223768274802783 1.979359720341638 0 0 0
155 1 0.03969617795703684 9.771831324070273 8.00782156485847 1 0 0
158 1 10.456599810277039 9.676603994035734 2.028081704304546 0 0 0
179 1 14.003373695018565 9.67624963552781 3.9865481425807476 0 0 0
183 1 10.42759447496144 9.643681829276318 6.018433188821875 0 0 0
186 1 12.838573828537278 8.897575959279289 6.0099411960775395 0 0 0
187 1 10.45334653247875 7.214563536545375 6.019962306140922 0 0 0
51 1 4.696442473414534 10.631871120406565 3.970337563198291 0 0 0
54 1 1.1697621101457591 10.543482752820768 5.9138496933976725 0 0 0
64 1 3.5231724195593395 12.01467616120106 5.99117318157324 0 0 0
153 1 1.1319641102302656 10.507968460668925 1.9525813645746521 0 0 0
154 1 2.2660281510209805 11.246316077531665 8.026990388673786 0 0 0
177 1 2.2543371168248245 11.363227664113412 3.8996276824238 0 0 0
191 1 4.59919294270733 10.57148162585366 8.063958067002613 0 0 0
195 1 3.4100641574770556 12.083461717732225 1.8396491069359424 0 0 0
243 2 3.7273833635555125 12.16899635995261 7.944267572704317 0 0 0
251 2 1.138627891204115 12.148786229510243 5.037449121100174 0 0 0
252 2 3.2151859180365054 10.04407724569275 4.467902306611536 0 0 0
40 1 6.989515596758123 12.065726613767719 0.02846534123222077 0 0 1
48 1 8.121531408390837 10.580058297485394 2.0036076911823133 0 0 0
49 1 9.3205248608367 11.31644064503058 0.023559095778399475 0 0 1
52 1 5.829420240876177 11.2997507963356 6.062858705789351 0 0 0
98 1 6.956971590539884 12.00888658474758 3.97998969374858 0 0 0
184 1 8.199495245256182 10.698333810500966 6.022970245778538 0 0 0
185 1 9.334842634562776 11.32445392690909 3.9993318339983803 0 0 0
192 1 5.786150414538902 11.28659200622557 1.9598849126943392 0 0 0
242 2 8.344975054220713 12.242662116306612 5.1403614457475015 0 0 0
254 2 5.2226717516510615 12.195908309656737 4.687714856014075 0 0 0
256 2 7.261785846577809 12.195085429895444 2.037482096330971 0 0 0
34 1 10.590878561695627 12.06222854712038 2.0053419978721236 0 0 0
66 1 14.014446181832133 12.135703893923058 3.7340706620118613 0 0 0
96 1 10.509304666575918 12.037182177330749 6.089645767614079 0 0 0
156 1 11.73417122388107 10.781618427261066 8.000621500545527 0 0 0
157 1 12.814628202303016 11.18025519326428 1.9969472740493968 0 0 0
181 1 11.68809591002014 10.61233910169129 4.0620414958730855 0 0 0
182 1 13.124111048463197 11.660218979267746 6.048901062624351 0 0 0
197 1 0.10641244352481749 12.454675499680608 0.5144578204539302 1 0 1
244 2 12.087463449241989 12.187873584469541 3.253687253786946 0 0 0
245 2 0.471297871985954 11.38641804182969 7.307099561979741 1 0 0
246 2 10.771095021608938 12.280954987776948 0.04247663443208597 0 0 0
248 2 10.668248547844357 9.491268972298442 0.29668072302641596 0 0 0
253 2 11.895969174807224 10.478504953617863 6.214138739474624 0 0 0
255 2 12.588949849287483 9.339221873789901 0.4155621505341888 0 0 0
63 1 2.2112876757580575 18.023168438066598 4.026290713888899 0 0 0
65 1 4.5687271229656865 18.74110161447012 3.996309771647034 0 0 0
67 1 1.076212815436552 18.750353632287958 6.045012679269033 0 0 0
90 1 3.394566600700355 19.453413350100067 1.9725086922332367 0 0 0
175 1 3.39358590629255 19.465439667755707 6.005157742419703 0 0 0
194 1 2.2510760861050816 18.019209318244144 8.076378668674769 0 0 0
196 1 4.564315381341694 18.79064240824294 8.046255457861895 0 0 0
198 1 1.0636416312061612 18.74207025510449 1.9787310144244796 0 0 0
250 2 3.735974226610807 17.90402439256969 1.1820722477768826 0 0 0
24 1 9.290850363973359 18.022829060758852 8.0475203138884 0 0 0
41 1 8.083231216981423 18.74531693655027 1.9550775999615624 0 0 0
46 1 6.898429777958477 19.42867724633754 3.9755637661060526 0 0 0
62 1 5.7205387230011375 18.03231345940796 6.0416677255906395 0 0 0
95 1 9.26078048281011 18.038658022859266 3.983785742346041 0 0 0
99 1 8.068249924936895 18.724261089487154 6.007237844690193 0 0 0
104 1 6.9195380196913785 19.447769866633568 8.041883048283331 0 0 0
193 1 5.711535884384301 18.032246260722072 1.911791897599453 0 0 0
249 2 6.049488557575127 17.888924332233376 7.934563649152747 0 0 -1
9 1 12.804386838727137 18.015666421541145 1.9635085334599864 0 0 0
39 1 11.637037596935338 18.733501542616718 8.061975702542048 0 0 0
44 1 10.388054699232798 19.331716586755835 5.985425316353386 0 0 0
92 1 13.979300148044585 19.43192495496897 8.069110391601457 0 0 0
94 1 12.803552144468684 18.022368795917906 6.009291617697238 0 0 0
97 1 11.618208361076555 18.727373099087735 3.9709876843468273 0 0 0
102 1 10.438948342054156 19.427273530757553 1.957731674640299 0 0 0
178 1 13.967002475725694 19.424641348939698 3.9942006533938437 0 0 0
89 1 2.2378502062698193 20.357161083942028 8.051308240912922 0 0 0
91 1 4.576674669221392 21.18297961354986 8.049263218730635 0 0 0
93 1 1.0698350163150754 21.15880686410414 1.967085545777671 0 0 0
114 1 2.2394569773919977 22.782353310646837 8.053871504986335 0 0 0
115 1 3.4064330409620287 21.967588865543306 1.9621935064304754 0 0 0
116 1 4.580693562496916 23.5957031308784 8.055393313792388 0 0 0
118 1 1.0625668328152402 23.57882752701908 1.9636919192746347 0 0 0
134 1 2.234843765244708 22.779740133153645 3.9916440366279184 0 0 0
135 1 3.408294193544782 21.97699971805129 6.01935996960307 0 0 0
136 1 4.5774224046569545 23.592163623797195 3.9932708762679345 0 0 0
138 1 1.0645080667944078 23.58487498340195 6.022144635095905 0 0 0
174 1 2.2360294490871384 20.34667502298856 3.9930093655018473 0 0 0
176 1 4.571024902351831 21.166007804302765 3.988167103158372 0 0 0
180 1 1.0773140153772736 21.167621458066815 6.023115971686487 0 0 0
222 1 3.4068613877912783 24.404484872223804 1.965963835994069 0 0 0
224 1 3.409665920853822 24.406124173057737 6.023891613363333 0 0 0
23 1 6.920502297014119 24.410810003225976 3.9950140991213514 0 0 0
43 1 9.246272836690753 20.34384944955265 3.9767471046414324 0 0 0
47 1 8.076060615117065 21.154967823664485 6.015986702505027 0 0 0
83 1 9.253305451089435 22.78509820475124 3.9862726474180503 0 0 0
86 1 6.9139044252875035 21.968211788736085 3.987185769601728 0 0 0
87 1 8.088803938854486 23.587810626483257 6.023816289010925 0 0 0
88 1 5.748913527803296 20.370469608859334 1.9678972905335461 0 0 0
101 1 9.252824414507234 20.343223500356515 8.053016424132444 0 0 0
105 1 8.087629879005918 21.163351272817547 1.9522195851537965 0 0 0
113 1 5.749160172725381 22.790191214757552 1.9620191900899995 0 0 0
133 1 5.747051058782503 22.787390650587405 6.021338375337627 0 0 0
147 1 9.257766886241846 22.7891511579637 8.05669919111597 0 0 0
150 1 6.917861593185028 21.968958664834048 8.047813336470469 0 0 0
151 1 8.09089621417916 23.593768170840576 1.9614788991777927 0 0 0
173 1 5.734765970344453 20.359643932441404 6.008387335224527 0 0 0
217 1 6.922766620615018 24.41187200622408 8.056205034503503 0 0 0
15 1 10.433977075144965 24.417005952091632 6.02388775724685 0 0 0
42 1 12.84861638023785 20.33392015428702 6.006094114913362 0 0 0
45 1 11.605508968348728 21.153361857275907 3.9856180598240027 0 0 0
56 1 13.957032430402894 24.404216337251604 8.05308348606057 0 0 0
60 1 10.435501616831932 24.409269204693526 1.9650026085481713 0 0 0
82 1 12.789029735884002 22.7861947873798 6.025429725799151 0 0 0
84 1 10.39990843158756 22.00792940072427 6.00323764676193 0 0 0
85 1 11.606833240669742 23.580929026950518 3.993695056951544 0 0 0
100 1 12.792460207837046 20.337168269193885 1.9743491039202166 0 0 0
103 1 11.622735117521835 21.175472593038663 8.112537223232302 0 0 0
117 1 13.965483074635145 21.967420605064582 8.061708938373503 0 0 0
137 1 13.957269112983687 21.9607834343402 3.9926637717405296 0 0 0
146 1 12.782831883646368 22.7742380923173 1.9674360767806047 0 0 0
148 1 10.431545013548826 21.967687856820874 1.9702655168286285 0 0 0
149 1 11.60831572920678 23.592544942016097 8.05955625216476 0 0 0
226 1 13.954769768209392 24.397014456849696 3.9929265390625375 0 0 0
241 2 11.284727600709655 20.667563209207803 6.540798103949498 0 0 0
2 1 1.076727381391 25.986469888427 6.014516399208 0 0 0
4 1 3.40994705659 29.368465186677 6.018819642473 0 0 0
13 1 2.231707400416 27.719436872092 8.061255166394 0 0 0
17 1 3.400807342726 26.860067222931 1.978711111032 0 0 0
22 1 4.573483505235 28.317418863688 8.061385988497 0 0 0
30 1 1.048241393652 28.292818409533 1.955998087653 0 0 0
55 1 4.583388647805 26.008692099769 8.068630089909 0 0 0
57 1 1.05661244381 25.986834146213 1.962799781355 0 0 0
139 1 2.215835795925 27.736208145932 4.004391742266 0 0 0
140 1 3.405626364846 26.856368701043 6.018140358243 0 0 0
141 1 4.577589421227 28.301967620282 3.996477126821 0 0 0
143 1 1.058017558251 28.287563649091 6.048239430294 0 0 0
220 1 2.2365960812765477 25.213931259387174 8.055474216091378 0 0 0
223 1 2.234535250662801 25.211963617855876 3.99090223898102 0 0 0
225 1 4.575138277146 26.008764702686 3.997607182929 0 0 0
229 1 3.394482639917 29.367230937087 1.985170036207 0 0 0
8 1 5.764516735426 27.755935750881 1.957580620955 0 0 0
10 1 9.265163391810653 25.22291796632844 3.9947580835636645 0 0 0
27 1 8.098971336029 26.003884394275 6.036138669953 0 0 0
59 1 9.267624615197985 25.228889110159166 8.056819438219863 0 0 0
145 1 9.278891784752 27.740725439758 4.00373706331 0 0 0
161 1 6.939146555551 29.377497536567 4.006002941119 0 0 0
170 1 6.937718936774 29.380692313558 8.054253869507 0 0 0
215 1 6.92729760101 26.869423550906 3.993871809911 0 0 0
216 1 8.100270680094 28.300166222563 6.027167976635 0 0 0
218 1 5.752453905772852 25.226078647968787 1.9693982263331842 0 0 0
219 1 8.100162096675 26.013224312002 1.958446921513 0 0 0
221 1 5.752092062420494 25.227711632984605 6.027933184347009 0 0 0
235 1 9.283640762128 27.786751710928 8.076086706183 0 0 0
238 1 6.935354434385 26.872930868536 8.07316631183 0 0 0
239 1 8.098209564276 28.314094047911 1.995625734989 0 0 0
240 1 5.744090534756 27.755448167592 6.033969020693 0 0 0
6 1 12.7846383288684 25.217502256826577 6.025189192680239 0 0 0
18 1 11.617012904198 25.989855621035 3.995117746306 0 0 0
26 1 13.958898717652 26.869825850631 8.04507131097 0 0 0
29 1 13.950212044191 29.379561746901 3.992627010394 0 0 0
37 1 10.444634783482 29.396639096737 6.03736714716 0 0 0
58 1 12.781876764190834 25.20812900134211 1.961802857297975 0 0 0
61 1 11.60650605196 26.00103274066 8.055540246254 0 0 0
142 1 13.957838200847 26.859328015833 3.993168326434 0 0 0
144 1 12.776089696829 27.74713687407 6.016990569192 0 0 0
167 1 10.442632460241 29.407563597992 1.981290523379 0 0 0
212 1 10.437962810647 26.88024660699 6.034886237116 0 0 0
214 1 11.622113933771 28.299369330956 3.997829767278 0 0 0
232 1 13.943125850932 29.397755988187 8.066013891458 0 0 0
234 1 12.783040582771 27.717976359987 1.975268646348 0 0 0
236 1 10.450743022716 26.877436476275 1.967506534883 0 0 0
237 1 11.635301333659 28.310247087868 8.073659229376 0 0 0

Velocities

12 0 0 0
14 0 0 0
20 0 0 0
74 0 0 0
119 0 0 0
162 0 0 0
164 0 0 0
165 0 0 0
171 0 0 0
207 0 0 0
209 0 0 0
210 0 0 0
211 0 0 0
227 0 0 0
230 0 0 0
231 0 0 0
16 0 0 0
21 0 0 0
25 0 0 0
71 0 0 0
124 0 0 0
125 0 0 0
159 0 0 0
160 0 0 0
163 0 0 0
168 0 0 0
169 0 0 0
172 0 0 0
200 0 0 0
206 0 0 0
208 0 0 0
228 0 0 0
1 0 0 0
7 0 0 0
11 0 0 0
32 0 0 0
33 0 0 0
36 0 0 0
68 0 0 0
77 0 0 0
80 0 0 0
120 0 0 0
121 0 0 0
122 0 0 0
123 0 0 0
166 0 0 0
213 0 0 0
233 0 0 0
19 0 0 0
28 0 0 0
31 0 0 0
53 0 0 0
72 0 0 0
75 0 0 0
76 0 0 0
106 0 0 0
108 0 0 0
109 0 0 0
110 0 0 0
152 0 0 0
201 0 0 0
203 0 0 0
204 0 0 0
205 0 0 0
3 0 0 0
5 0 0 0
50 0 0 0
69 0 0 0
70 0 0 0
73 0 0 0
81 0 0 0
107 0 0 0
130 0 0 0
131 0 0 0
132 0 0 0
188 0 0 0
189 0 0 0
190 0 0 0
199 0 0 0
202 0 0 0
247 0 0 0
35 0 0 0
38 0 0 0
78 0 0 0
79 0 0 0
111 0 0 0
112 0 0 0
126 0 0 0
127 0 0 0
128 0 0 0
129 0 0 0
155 0 0 0
158 0 0 0
179 0 0 0
183 0 0 0
186 0 0 0
187 0 0 0
51 0 0 0
54 0 0 0
64 0 0 0
153 0 0 0
154 0 0 0
177 0 0 0
191 0 0 0
195 0 0 0
243 0 0 0
251 0 0 0
252 0 0 0
40 0 0 0
48 0 0 0
49 0 0 0
52 0 0 0
98 0 0 0
184 0 0 0
185 0 0 0
192 0 0 0
242 0 0 0
254 0 0 0
256 0 0 0
34 0 0 0
66 0 0 0
96 0 0 0
156 0 0 0
157 0 0 0
181 0 0 0
182 0 0 0
197 0 0 0
244 0 0 0
245 0 0 0
246 0 0 0
248 0 0 0
253 0 0 0
255 0 0 0
63 0 0 0
65 0 0 0
67 0 0 0
90 0 0 0
175 0 0 0
194 0 0 0
196 0 0 0
198 0 0 0
250 0 0 0
24 0 0 0
41 0 0 0
46 0 0 0
62 0 0 0
95 0 0 0
99 0 0 0
104 0 0 0
193 0 0 0
249 0 0 0
9 0 0 0
39 0 0 0
44 0 0 0
92 0 0 0
94 0 0 0
97 0 0 0
102 0 0 0
178 0 0 0
89 0 0 0
91 0 0 0
93 0 0 0
114 0 0 0
115 0 0 0
116 0 0 0
118 0 0 0
134 0 0 0
135 0 0 0
136 0 0 0
138 0 0 0
174 0 0 0
176 0 0 0
180 0 0 0
222 0 0 0
224 0 0 0
23 0 0 0
43 0 0 0
47 0 0 0
83 0 0 0
86 0 0 0
87 0 0 0
88 0 0 0
101 0 0 0
105 0 0 0
113 0 0 0
133 0 0 0
147 0 0 0
150 0 0 0
151 0 0 0
173 0 0 0
217 0 0 0
15 0 0 0
42 0 0 0
45 0 0 0
56 0 0 0
60 0 0 0
82 0 0 0
84 0 0 0
85 0 0 0
100 0 0 0
103 0 0 0
117 0 0 0
137 0 0 0
146 0 0 0
148 0 0 0
149 0 0 0
226 0 0 0
241 0 0 0
2 0 0 0
4 0 0 0
13 0 0 0
17 0 0 0
22 0 0 0
30 0 0 0
55 0 0 0
57 0 0 0
139 0 0 0
140 0 0 0
141 0 0 0
143 0 0 0
220 0 0 0
223 0 0 0
225 0 0 0
229 0 0 0
8 0 0 0
10 0 0 0
27 0 0 0
59 0 0 0
145 0 0 0
161 0 0 0
170 0 0 0
215 0 0 0
216 0 0 0
218 0 0 0
219 0 0 0
221 0 0 0
235 0 0 0
238 0 0 0
239 0 0 0
240 0 0 0
6 0 0 0
18 0 0 0
26 0 0 0
29 0 0 0
37 0 0 0
58 0 0 0
61 0 0 0
142 0 0 0
144 0 0 0
167 0 0 0
212 0 0 0
214 0 0 0
232 0 0 0
234 0 0 0
236 0 0 0
237 0 0 0
