LAMMPS data file via write_data, version 29 Aug 2024, timestep = 7, units = metal

288 atoms
1 atom types

0 11.317147 xlo xhi
0 28.863582 ylo yhi
0 11.317147 zlo zhi

Masses

1 55.8

Atoms # atomic

1 1 0 0 0 0 0 0
2 1 1.414643375 1.414643557616 1.414643375 0 0 0
3 1 0 0 2.82928675 0 0 0
4 1 1.414643375 1.414643557616 4.243930125 0 0 0
9 1 0 2.82928660596 0 0 0 0
10 1 1.4146433749999991 4.23462970144093 1.4146433749999978 0 0 0
11 1 0 2.82928660596 2.82928675 0 0 0
12 1 1.4146433749999967 4.234629701440919 4.243930125000003 0 0 0
73 1 2.82928675 0 0 0 0 0
74 1 4.243930125 1.414643557616 1.414643375 0 0 0
75 1 2.82928675 0 2.82928675 0 0 0
76 1 4.243930125 1.414643557616 4.243930125 0 0 0
81 1 2.82928675 2.82928660596 0 0 0 0
82 1 4.243930124999999 4.234629701440931 1.4146433750000014 0 0 0
83 1 2.82928675 2.82928660596 2.82928675 0 0 0
84 1 4.243930125 4.234629701440919 4.243930124999997 0 0 0
145 1 5.6585735 0 0 0 0 0
146 1 7.073216875 1.414643557616 1.414643375 0 0 0
147 1 5.6585735 0 2.82928675 0 0 0
148 1 7.073216875 1.414643557616 4.243930125 0 0 0
153 1 5.6585735 2.82928660596 0 0 0 0
154 1 7.073216875 4.2346297014409275 1.414643374999999 0 0 0
155 1 5.6585735 2.82928660596 2.82928675 0 0 0
156 1 7.073216875000001 4.234629701440919 4.243930125 0 0 0
217 1 8.48786025 0 0 0 0 0
218 1 9.902503625 1.414643557616 1.414643375 0 0 0
219 1 8.48786025 0 2.82928675 0 0 0
220 1 9.902503625 1.414643557616 4.243930125 0 0 0
225 1 8.48786025 2.82928660596 0 0 0 0
226 1 9.902503625000001 4.2346297014409275 1.4146433750000018 0 0 0
227 1 8.48786025 2.82928660596 2.82928675 0 0 0
228 1 9.902503625000001 4.2346297014409195 4.2439301249999986 0 0 0
17 1 0 5.645306233911813 5.266074114602165e-15 0 0 0
18 1 1.4146433749999996 7.057517183359834 1.4146433750000036 0 0 0
19 1 11.317146999999999 5.645306233911818 2.8292867499999894 -1 0 0
20 1 1.4146433749999991 7.057517183359847 4.243930125 0 0 0
25 1 4.653691010476637e-15 8.468503838463757 11.317146999999991 0 0 -1
27 1 0 8.468503838463748 2.8292867500000027 0 0 0
89 1 2.8292867499999996 5.645306233911812 1.1119484069294374e-14 0 0 0
90 1 4.2439301249999986 7.0575171833598285 1.4146433750000067 0 0 0
91 1 2.8292867500000036 5.645306233911817 2.829286749999989 0 0 0
92 1 4.243930125 7.057517183359846 4.243930124999996 0 0 0
97 1 2.8292867499999956 8.468503838463759 11.317146999999991 0 0 -1
99 1 2.829286750000002 8.46850383846375 2.829286750000002 0 0 0
161 1 5.658573499999999 5.6453062339118105 6.749042771900896e-15 0 0 0
162 1 7.0732168750000035 7.057517183359834 1.4146433750000016 0 0 0
163 1 5.658573499999997 5.645306233911813 2.829286749999991 0 0 0
164 1 7.073216875000003 7.05751718335985 4.2439301249999986 0 0 0
169 1 5.6585735000000055 8.468503838463759 11.317146999999991 0 0 -1
171 1 5.658573500000002 8.468503838463754 2.829286750000008 0 0 0
233 1 8.487860249999997 5.645306233911815 2.8847190516670527e-15 0 0 0
234 1 9.902503625 7.057517183359828 1.4146433750000083 0 0 0
235 1 8.487860250000002 5.645306233911816 2.8292867499999934 0 0 0
236 1 9.902503625 7.057517183359846 4.243930124999998 0 0 0
241 1 8.487860249999994 8.468503838463754 11.317146999999995 0 0 -1
243 1 8.487860249999995 8.468503838463748 2.8292867500000085 0 0 0
26 1 1.4146433749999983 9.871158651170777 1.4146433749999965 0 0 0
28 1 1.414643375 9.871158651170767 4.243930125000004 0 0 0
33 1 11.317146999999999 11.290715270230686 4.903298746421597e-15 -1 0 0
34 1 1.4146433749999914 12.67947734777241 1.414643374999999 0 0 0
35 1 11.317146999999999 11.290715270230693 2.8292867499999947 -1 0 0
36 1 1.4146433749999934 12.679477347772416 4.243930125000003 0 0 0
98 1 4.243930124999999 9.871158651170779 1.4146433750000023 0 0 0
100 1 4.243930125000002 9.87115865117077 4.243930124999999 0 0 0
105 1 2.829286749999997 11.29071527023069 5.757095967571696e-15 0 0 0
106 1 4.243930125000002 12.67947734777241 1.4146433750000025 0 0 0
107 1 2.8292867499999996 11.290715270230693 2.8292867499999943 0 0 0
108 1 4.243930125000003 12.679477347772414 4.243930124999996 0 0 0
170 1 7.073216874999999 9.871158651170775 1.414643375 0 0 0
172 1 7.073216875000002 9.871158651170767 4.243930124999999 0 0 0
177 1 5.6585735 11.290715270230688 3.011104600162511e-15 0 0 0
178 1 7.073216875000001 12.67947734777241 1.4146433750000034 0 0 0
179 1 5.658573500000002 11.290715270230692 2.8292867499999983 0 0 0
180 1 7.0732168750000035 12.679477347772414 4.2439301249999986 0 0 0
242 1 9.902503625 9.871158651170783 1.4146433749999987 0 0 0
244 1 9.902503624999998 9.871158651170768 4.243930125000002 0 0 0
249 1 8.487860250000002 11.29071527023069 6.365782767784622e-15 0 0 0
250 1 9.902503624999998 12.679477347772412 1.414643375000001 0 0 0
251 1 8.48786025 11.29071527023069 2.8292867499999965 0 0 0
252 1 9.902503625 12.67947734777241 4.243930124999998 0 0 0
41 1 3.0775223547990904e-17 17.597379450314254 4.02252903615598e-15 0 0 0
42 1 1.414643375000001 18.98624739827883 1.4146433750000007 0 0 0
43 1 0 17.597379450314254 2.8292867500000005 0 0 0
44 1 1.4146433750000025 18.986247398278827 4.243930125 0 0 0
113 1 2.8292867500000036 17.59737945031425 3.0203820840832616e-15 0 0 0
114 1 4.243930124999999 18.98624739827883 1.414643375000003 0 0 0
115 1 2.8292867500000036 17.597379450314246 2.829286749999999 0 0 0
116 1 4.243930125000002 18.98624739827883 4.2439301249999986 0 0 0
185 1 5.658573499999997 17.597379450314254 9.585884032857843e-16 0 0 0
186 1 7.073216875 18.98624739827883 1.414643374999999 0 0 0
187 1 5.658573499999998 17.597379450314254 2.82928675 0 0 0
188 1 7.073216874999998 18.98624739827883 4.243930125000002 0 0 0
257 1 8.487860249999999 17.597379450314254 9.432900877999198e-16 0 0 0
258 1 9.902503625 18.98624739827883 1.4146433750000014 0 0 0
259 1 8.487860249999997 17.59737945031425 2.8292867500000005 0 0 0
260 1 9.902503625000003 18.986247398278827 4.2439301249999986 0 0 0
49 1 0 20.40553586819874 3.1018246150509103e-15 0 0 0
50 1 1.4146433749999967 21.80851309091495 1.4146433749999978 0 0 0
51 1 4.854329042644258e-16 20.40553586819874 2.829286749999998 0 0 0
52 1 1.4146433749999998 21.808513090914953 4.243930125000002 0 0 0
57 1 2.7208489075392666e-15 23.21797206157726 11.317146999999997 0 0 -1
59 1 1.7323758174873494e-15 23.217972061577264 2.8292867499999974 0 0 0
121 1 2.8292867500000005 20.405535868198744 11.317146999999997 0 0 -1
122 1 4.243930125000003 21.808513090914953 1.4146433749999974 0 0 0
123 1 2.829286749999999 20.40553586819874 2.829286749999999 0 0 0
124 1 4.243930125000004 21.808513090914953 4.243930125 0 0 0
129 1 2.8292867500000005 23.21797206157726 11.317146999999997 0 0 -1
131 1 2.82928675 23.217972061577264 2.82928675 0 0 0
193 1 5.658573500000002 20.405535868198744 9.438200707475999e-17 0 0 0
194 1 7.073216875000003 21.808513090914953 1.4146433749999965 0 0 0
195 1 5.6585735 20.40553586819874 2.829286750000003 0 0 0
196 1 7.073216875000001 21.808513090914953 4.243930125000002 0 0 0
201 1 5.6585734999999975 23.217972061577257 0 0 0 0
203 1 5.6585735 23.217972061577264 2.8292867499999996 0 0 0
265 1 8.487860249999999 20.405535868198744 8.097920153244693e-16 0 0 0
266 1 9.902503625000003 21.80851309091495 1.4146433749999987 0 0 0
267 1 8.487860249999999 20.40553586819874 2.829286750000001 0 0 0
268 1 9.902503625 21.808513090914953 4.243930125000002 0 0 0
273 1 8.48786025 23.217972061577257 5.68541265556394e-16 0 0 0
275 1 8.487860249999997 23.217972061577264 2.829286749999998 0 0 0
58 1 1.4146433749999974 24.6217519643162 1.4146433749999987 0 0 0
60 1 1.4146433749999971 24.6217519643162 4.243930125000001 0 0 0
65 1 0 26.03429539404 0 0 0 0
66 1 1.414643375 27.448937423841 1.414643375 0 0 0
67 1 0 26.03429539404 2.82928675 0 0 0
68 1 1.414643375 27.448937423841 4.243930125 0 0 0
130 1 4.243930125000002 24.621751964316196 1.414643375 0 0 0
132 1 4.243930125 24.6217519643162 4.243930125 0 0 0
137 1 2.82928675 26.03429539404 0 0 0 0
138 1 4.243930125 27.448937423841 1.414643375 0 0 0
139 1 2.82928675 26.03429539404 2.82928675 0 0 0
140 1 4.243930125 27.448937423841 4.243930125 0 0 0
202 1 7.073216875000001 24.621751964316196 1.414643375000002 0 0 0
204 1 7.073216875000003 24.621751964316196 4.243930125000001 0 0 0
209 1 5.6585735 26.03429539404 0 0 0 0
210 1 7.073216875 27.448937423841 1.414643375 0 0 0
211 1 5.6585735 26.03429539404 2.82928675 0 0 0
212 1 7.073216875 27.448937423841 4.243930125 0 0 0
274 1 9.902503625000003 24.6217519643162 1.4146433750000005 0 0 0
276 1 9.902503625000001 24.6217519643162 4.243930125000001 0 0 0
281 1 8.48786025 26.03429539404 0 0 0 0
282 1 9.902503625 27.448937423841 1.414643375 0 0 0
283 1 8.48786025 26.03429539404 2.82928675 0 0 0
284 1 9.902503625 27.448937423841 4.243930125 0 0 0
5 1 0 0 5.6585735 0 0 0
6 1 1.414643375 1.414643557616 7.073216875 0 0 0
7 1 0 0 8.48786025 0 0 0
8 1 1.414643375 1.414643557616 9.902503625 0 0 0
13 1 0 2.82928660596 5.6585735 0 0 0
14 1 1.4146433749999965 4.2346297014409275 7.073216874999996 0 0 0
15 1 0 2.82928660596 8.48786025 0 0 0
16 1 1.4146433749999965 4.23462970144092 9.902503625000003 0 0 0
77 1 2.82928675 0 5.6585735 0 0 0
78 1 4.243930125 1.414643557616 7.073216875 0 0 0
79 1 2.82928675 0 8.48786025 0 0 0
80 1 4.243930125 1.414643557616 9.902503625 0 0 0
85 1 2.82928675 2.82928660596 5.6585735 0 0 0
86 1 4.243930124999999 4.23462970144093 7.073216874999999 0 0 0
87 1 2.82928675 2.82928660596 8.48786025 0 0 0
88 1 4.243930125000002 4.234629701440921 9.902503625000001 0 0 0
149 1 5.6585735 0 5.6585735 0 0 0
150 1 7.073216875 1.414643557616 7.073216875 0 0 0
151 1 5.6585735 0 8.48786025 0 0 0
152 1 7.073216875 1.414643557616 9.902503625 0 0 0
157 1 5.6585735 2.82928660596 5.6585735 0 0 0
158 1 7.073216875000001 4.234629701440925 7.073216875 0 0 0
159 1 5.6585735 2.82928660596 8.48786025 0 0 0
160 1 7.0732168750000035 4.2346297014409195 9.902503625 0 0 0
221 1 8.48786025 0 5.6585735 0 0 0
222 1 9.902503625 1.414643557616 7.073216875 0 0 0
223 1 8.48786025 0 8.48786025 0 0 0
224 1 9.902503625 1.414643557616 9.902503625 0 0 0
229 1 8.48786025 2.82928660596 5.6585735 0 0 0
230 1 9.902503625000001 4.234629701440925 7.073216875000001 0 0 0
231 1 8.48786025 2.82928660596 8.48786025 0 0 0
232 1 9.902503624999998 4.23462970144092 9.902503624999998 0 0 0
21 1 2.5388907765259043e-15 5.645306233911814 5.6585735000000055 0 0 0
22 1 1.4146433749999994 7.057517183359834 7.0732168749999955 0 0 0
23 1 11.317146999999999 5.645306233911814 8.487860249999995 -1 0 0
24 1 1.4146433749999976 7.057517183359849 9.902503625000001 0 0 0
29 1 2.320211290371184e-15 8.468503838463755 5.658573499999997 0 0 0
31 1 3.974635204073521e-15 8.468503838463755 8.487860250000011 0 0 0
93 1 2.82928675 5.645306233911816 5.6585735000000055 0 0 0
94 1 4.243930125000005 7.057517183359831 7.073216875000002 0 0 0
95 1 2.8292867500000063 5.645306233911816 8.487860249999992 0 0 0
96 1 4.243930125000001 7.057517183359848 9.902503624999996 0 0 0
101 1 2.8292867500000005 8.468503838463757 5.658573499999998 0 0 0
103 1 2.8292867500000036 8.468503838463759 8.48786025000001 0 0 0
165 1 5.6585734999999975 5.645306233911814 5.658573500000007 0 0 0
166 1 7.073216875000002 7.057517183359836 7.073216874999999 0 0 0
167 1 5.658573499999997 5.645306233911815 8.487860249999992 0 0 0
168 1 7.073216875000003 7.057517183359845 9.902503625000001 0 0 0
173 1 5.658573500000001 8.468503838463759 5.658573499999994 0 0 0
175 1 5.658573499999998 8.468503838463754 8.487860250000008 0 0 0
237 1 8.487860249999999 5.645306233911819 5.6585735000000055 0 0 0
238 1 9.902503624999998 7.057517183359832 7.073216875 0 0 0
239 1 8.487860250000004 5.645306233911816 8.487860249999997 0 0 0
240 1 9.902503624999998 7.057517183359842 9.902503624999996 0 0 0
245 1 8.487860249999994 8.468503838463757 5.658573499999991 0 0 0
247 1 8.48786025 8.468503838463752 8.487860250000008 0 0 0
30 1 1.4146433750000023 9.87115865117078 7.073216874999997 0 0 0
32 1 1.4146433749999983 9.871158651170765 9.902503625000005 0 0 0
37 1 1.1156492499760747e-15 11.290715270230688 5.658573500000004 0 0 0
38 1 1.414643375 12.679477347772412 7.073216874999995 0 0 0
39 1 4.589646520407834e-15 11.29071527023069 8.487860249999995 0 0 0
40 1 1.414643375000001 12.679477347772414 9.902503625000005 0 0 0
102 1 4.243930124999999 9.871158651170777 7.073216874999999 0 0 0
104 1 4.243930124999998 9.871158651170767 9.902503625000003 0 0 0
109 1 2.8292867500000014 11.290715270230688 5.658573500000004 0 0 0
110 1 4.2439301249999986 12.67947734777241 7.073216874999999 0 0 0
111 1 2.8292867499999987 11.29071527023069 8.487860249999995 0 0 0
112 1 4.243930124999999 12.67947734777241 9.902503625000001 0 0 0
174 1 7.073216875 9.871158651170779 7.073216874999998 0 0 0
176 1 7.073216874999998 9.871158651170767 9.902503625000007 0 0 0
181 1 5.658573500000001 11.29071527023069 5.658573500000005 0 0 0
182 1 7.073216874999999 12.67947734777241 7.073216875000001 0 0 0
183 1 5.658573499999997 11.290715270230692 8.487860249999994 0 0 0
184 1 7.073216875000002 12.679477347772416 9.902503625000003 0 0 0
246 1 9.902503625 9.871158651170783 7.073216875000001 0 0 0
248 1 9.902503625000001 9.871158651170768 9.902503625000001 0 0 0
253 1 8.487860249999997 11.29071527023069 5.658573500000002 0 0 0
254 1 9.902503625000005 12.67947734777241 7.073216874999997 0 0 0
255 1 8.487860250000004 11.290715270230692 8.487860249999995 0 0 0
256 1 9.902503625000003 12.679477347772417 9.902503624999996 0 0 0
45 1 9.21541652442176e-17 17.59737945031425 5.6585735 0 0 0
46 1 1.4146433750000051 18.98624739827883 7.073216874999998 0 0 0
47 1 2.4346747038152227e-16 17.59737945031425 8.487860249999999 0 0 0
48 1 1.414643375000003 18.98624739827883 9.902503625000001 0 0 0
117 1 2.8292867499999996 17.597379450314254 5.658573499999999 0 0 0
118 1 4.243930125000001 18.986247398278834 7.073216874999998 0 0 0
119 1 2.829286750000004 17.59737945031425 8.487860249999999 0 0 0
120 1 4.243930125000002 18.98624739827883 9.902503624999998 0 0 0
189 1 5.658573499999997 17.59737945031425 5.658573500000003 0 0 0
190 1 7.073216874999997 18.986247398278834 7.073216875000003 0 0 0
191 1 5.658573500000002 17.59737945031425 8.487860249999994 0 0 0
192 1 7.073216874999998 18.98624739827883 9.902503624999998 0 0 0
261 1 8.487860249999999 17.597379450314254 5.658573500000002 0 0 0
262 1 9.902503624999998 18.98624739827883 7.073216875000001 0 0 0
263 1 8.487860249999999 17.597379450314246 8.487860249999997 0 0 0
264 1 9.902503625 18.98624739827883 9.902503625000003 0 0 0
53 1 3.389114108065163e-15 20.405535868198744 5.658573499999999 0 0 0
54 1 1.4146433749999998 21.80851309091495 7.073216874999999 0 0 0
55 1 1.4339185548519739e-15 20.40553586819874 8.48786025 0 0 0
56 1 1.414643375000002 21.808513090914953 9.902503625 0 0 0
61 1 2.371805385060495e-15 23.217972061577264 5.658573500000001 0 0 0
63 1 0 23.217972061577264 8.48786025 0 0 0
125 1 2.8292867499999987 20.405535868198744 5.658573500000002 0 0 0
126 1 4.243930125 21.80851309091495 7.073216874999999 0 0 0
127 1 2.8292867499999974 20.40553586819874 8.487860249999999 0 0 0
128 1 4.243930125 21.808513090914953 9.902503625000005 0 0 0
133 1 2.8292867499999996 23.217972061577264 5.6585735 0 0 0
135 1 2.8292867499999996 23.21797206157726 8.487860250000004 0 0 0
197 1 5.658573500000001 20.405535868198744 5.658573500000002 0 0 0
198 1 7.073216875000004 21.808513090914946 7.073216875000001 0 0 0
199 1 5.658573500000003 20.40553586819874 8.487860249999997 0 0 0
200 1 7.073216875000001 21.808513090914953 9.902503625000001 0 0 0
205 1 5.658573499999998 23.217972061577257 5.6585734999999975 0 0 0
207 1 5.6585735 23.217972061577264 8.487860250000002 0 0 0
269 1 8.48786025 20.405535868198744 5.658573500000001 0 0 0
270 1 9.902503625000003 21.808513090914953 7.073216874999998 0 0 0
271 1 8.487860249999999 20.40553586819874 8.48786025 0 0 0
272 1 9.902503625000001 21.808513090914957 9.902503625 0 0 0
277 1 8.487860249999999 23.21797206157726 5.658573500000001 0 0 0
279 1 8.487860250000002 23.21797206157726 8.487860250000004 0 0 0
62 1 1.414643374999997 24.6217519643162 7.073216874999999 0 0 0
64 1 1.4146433749999983 24.6217519643162 9.902503625000003 0 0 0
69 1 0 26.03429539404 5.6585735 0 0 0
70 1 1.414643375 27.448937423841 7.073216875 0 0 0
71 1 0 26.03429539404 8.48786025 0 0 0
72 1 1.414643375 27.448937423841 9.902503625 0 0 0
134 1 4.243930125000001 24.6217519643162 7.073216875 0 0 0
136 1 4.243930125 24.6217519643162 9.902503625000001 0 0 0
141 1 2.82928675 26.03429539404 5.6585735 0 0 0
142 1 4.243930125 27.448937423841 7.073216875 0 0 0
143 1 2.82928675 26.03429539404 8.48786025 0 0 0
144 1 4.243930125 27.448937423841 9.902503625 0 0 0
206 1 7.0732168750000035 24.6217519643162 7.073216875000001 0 0 0
208 1 7.073216875000001 24.621751964316196 9.902503625 0 0 0
213 1 5.6585735 26.03429539404 5.6585735 0 0 0
214 1 7.073216875 27.448937423841 7.073216875 0 0 0
215 1 5.6585735 26.03429539404 8.48786025 0 0 0
216 1 7.073216875 27.448937423841 9.902503625 0 0 0
278 1 9.902503625000003 24.6217519643162 7.073216874999998 0 0 0
280 1 9.902503625000003 24.621751964316196 9.902503625 0 0 0
285 1 8.48786025 26.03429539404 5.6585735 0 0 0
286 1 9.902503625 27.448937423841 7.073216875 0 0 0
287 1 8.48786025 26.03429539404 8.48786025 0 0 0
288 1 9.902503625 27.448937423841 9.902503625 0 0 0

Velocities

1 0 0 0
2 0 0 0
3 0 0 0
4 0 0 0
9 0 0 0
10 0 0 0
11 0 0 0
12 0 0 0
73 0 0 0
74 0 0 0
75 0 0 0
76 0 0 0
81 0 0 0
82 0 0 0
83 0 0 0
84 0 0 0
145 0 0 0
146 0 0 0
147 0 0 0
148 0 0 0
153 0 0 0
154 0 0 0
155 0 0 0
156 0 0 0
217 0 0 0
218 0 0 0
219 0 0 0
220 0 0 0
225 0 0 0
226 0 0 0
227 0 0 0
228 0 0 0
17 0 0 0
18 0 0 0
19 0 0 0
20 0 0 0
25 0 0 0
27 0 0 0
89 0 0 0
90 0 0 0
91 0 0 0
92 0 0 0
97 0 0 0
99 0 0 0
161 0 0 0
162 0 0 0
163 0 0 0
164 0 0 0
169 0 0 0
171 0 0 0
233 0 0 0
234 0 0 0
235 0 0 0
236 0 0 0
241 0 0 0
243 0 0 0
26 0 0 0
28 0 0 0
33 0 0 0
34 0 0 0
35 0 0 0
36 0 0 0
98 0 0 0
100 0 0 0
105 0 0 0
106 0 0 0
107 0 0 0
108 0 0 0
170 0 0 0
172 0 0 0
177 0 0 0
178 0 0 0
179 0 0 0
180 0 0 0
242 0 0 0
244 0 0 0
249 0 0 0
250 0 0 0
251 0 0 0
252 0 0 0
41 0 0 0
42 0 0 0
43 0 0 0
44 0 0 0
113 0 0 0
114 0 0 0
115 0 0 0
116 0 0 0
185 0 0 0
186 0 0 0
187 0 0 0
188 0 0 0
257 0 0 0
258 0 0 0
259 0 0 0
260 0 0 0
49 0 0 0
50 0 0 0
51 0 0 0
52 0 0 0
57 0 0 0
59 0 0 0
121 0 0 0
122 0 0 0
123 0 0 0
124 0 0 0
129 0 0 0
131 0 0 0
193 0 0 0
194 0 0 0
195 0 0 0
196 0 0 0
201 0 0 0
203 0 0 0
265 0 0 0
266 0 0 0
267 0 0 0
268 0 0 0
273 0 0 0
275 0 0 0
58 0 0 0
60 0 0 0
65 0 0 0
66 0 0 0
67 0 0 0
68 0 0 0
130 0 0 0
132 0 0 0
137 0 0 0
138 0 0 0
139 0 0 0
140 0 0 0
202 0 0 0
204 0 0 0
209 0 0 0
210 0 0 0
211 0 0 0
212 0 0 0
274 0 0 0
276 0 0 0
281 0 0 0
282 0 0 0
283 0 0 0
284 0 0 0
5 0 0 0
6 0 0 0
7 0 0 0
8 0 0 0
13 0 0 0
14 0 0 0
15 0 0 0
16 0 0 0
77 0 0 0
78 0 0 0
79 0 0 0
80 0 0 0
85 0 0 0
86 0 0 0
87 0 0 0
88 0 0 0
149 0 0 0
150 0 0 0
151 0 0 0
152 0 0 0
157 0 0 0
158 0 0 0
159 0 0 0
160 0 0 0
221 0 0 0
222 0 0 0
223 0 0 0
224 0 0 0
229 0 0 0
230 0 0 0
231 0 0 0
232 0 0 0
21 0 0 0
22 0 0 0
23 0 0 0
24 0 0 0
29 0 0 0
31 0 0 0
93 0 0 0
94 0 0 0
95 0 0 0
96 0 0 0
101 0 0 0
103 0 0 0
165 0 0 0
166 0 0 0
167 0 0 0
168 0 0 0
173 0 0 0
175 0 0 0
237 0 0 0
238 0 0 0
239 0 0 0
240 0 0 0
245 0 0 0
247 0 0 0
30 0 0 0
32 0 0 0
37 0 0 0
38 0 0 0
39 0 0 0
40 0 0 0
102 0 0 0
104 0 0 0
109 0 0 0
110 0 0 0
111 0 0 0
112 0 0 0
174 0 0 0
176 0 0 0
181 0 0 0
182 0 0 0
183 0 0 0
184 0 0 0
246 0 0 0
248 0 0 0
253 0 0 0
254 0 0 0
255 0 0 0
256 0 0 0
45 0 0 0
46 0 0 0
47 0 0 0
48 0 0 0
117 0 0 0
118 0 0 0
119 0 0 0
120 0 0 0
189 0 0 0
190 0 0 0
191 0 0 0
192 0 0 0
261 0 0 0
262 0 0 0
263 0 0 0
264 0 0 0
53 0 0 0
54 0 0 0
55 0 0 0
56 0 0 0
61 0 0 0
63 0 0 0
125 0 0 0
126 0 0 0
127 0 0 0
128 0 0 0
133 0 0 0
135 0 0 0
197 0 0 0
198 0 0 0
199 0 0 0
200 0 0 0
205 0 0 0
207 0 0 0
269 0 0 0
270 0 0 0
271 0 0 0
272 0 0 0
277 0 0 0
279 0 0 0
62 0 0 0
64 0 0 0
69 0 0 0
70 0 0 0
71 0 0 0
72 0 0 0
134 0 0 0
136 0 0 0
141 0 0 0
142 0 0 0
143 0 0 0
144 0 0 0
206 0 0 0
208 0 0 0
213 0 0 0
214 0 0 0
215 0 0 0
216 0 0 0
278 0 0 0
280 0 0 0
285 0 0 0
286 0 0 0
287 0 0 0
288 0 0 0
