LAMMPS data file via write_data, version 29 Aug 2024, timestep = 5, units = metal

240 atoms
1 atom types

0 13.98284573 xlo xhi
0 30.01841258 ylo yhi
0 8.07299975 zlo zhi

Masses

1 55.8

Atoms # atomic

14 1 1.104123392353 0.978309288037 6.019465798333 0 0 0
20 1 2.26936048991 1.511660948117 4.001215860833 0 0 0
119 1 2.269360540038459 4.034947605605587 8.037715735832995 0 0 0
162 1 4.599834824853 3.240284549262 8.037715735833 0 0 0
164 1 3.434597727296 2.374575787602 1.982965923333 0 0 0
165 1 1.104123392353 3.240284549262 1.982965923333 0 0 0
171 1 4.599834824853 0.978309288037 4.001215860833 0 0 0
207 1 4.599834824853 3.240284549262 4.001215860833 0 0 0
209 1 3.434597727296 2.374575787602 6.019465798333 0 0 0
210 1 1.104123392353 3.240284549262 6.019465798333 0 0 0
211 1 2.2693605400384604 4.034947605605584 4.001215860833001 0 0 0
227 1 4.599834824853 0.978309288037 8.037715735833 0 0 0
230 1 1.104123392353 0.978309288037 1.982965923333 0 0 0
231 1 2.26936048991 1.511660948117 8.037715735833 0 0 0
16 1 8.095546257353 3.240284549262 6.019465798333 0 0 0
21 1 9.26078340503846 4.034947605605581 4.0012158608330015 0 0 0
25 1 6.930309159796 2.374575787602 4.001215860833 0 0 0
124 1 8.095546257353 3.240284549262 1.982965923333 0 0 0
125 1 9.260783405038458 4.034947605605582 8.037715735832997 0 0 0
159 1 8.095546257353 0.978309288037 6.019465798333 0 0 0
160 1 9.26078335491 1.511660948117 4.001215860833 0 0 0
163 1 5.765071972538461 4.034947605605585 1.9829659233329988 0 0 0
168 1 8.095546257353 0.978309288037 1.982965923333 0 0 0
169 1 9.26078335491 1.511660948117 8.037715735833 0 0 0
172 1 5.76507192241 1.511660948117 6.019465798333 0 0 0
206 1 6.930309159796 2.374575787602 8.037715735833 0 0 0
208 1 5.76507197253846 4.034947605605581 6.019465798333002 0 0 0
228 1 5.76507192241 1.511660948117 1.982965923333 0 0 0
1 1 11.591257689853 3.240284549262 4.001215860833 0 0 0
7 1 12.756494837538458 4.034947605605581 6.019465798333001 0 0 0
11 1 10.426020592296 2.374575787602 6.019465798333 0 0 0
33 1 11.591257689853 0.978309288037 4.001215860833 0 0 0
36 1 12.75649478741 1.511660948117 6.019465798333 0 0 0
120 1 13.921732024796 2.374575787602 8.037715735833 0 0 0
121 1 11.591257689853 3.240284549262 8.037715735833 0 0 0
122 1 12.756494837538458 4.034947605605581 1.9829659233329986 0 0 0
123 1 10.426020592296 2.374575787602 1.982965923333 0 0 0
166 1 12.75649478741 1.511660948117 1.982965923333 0 0 0
213 1 13.921732024796 2.374575787602 4.001215860833 0 0 0
233 1 11.591257689853 0.978309288037 8.037715735833 0 0 0
12 1 3.434597682735223 4.866340815388799 1.982965923333002 0 0 0
19 1 1.1041233934833143 5.669781421588973 1.9829659233329973 0 0 0
28 1 2.269360536942882 6.482872889467123 8.037715735833002 0 0 0
31 1 4.599834825983314 5.669781421588971 8.037715735832998 0 0 0
72 1 4.599834825983314 5.669781421588971 4.001215860832998 0 0 0
74 1 3.434597682735219 4.866340815388799 6.019465798333002 0 0 0
75 1 1.1041233934833201 5.66978142158897 6.019465798333003 0 0 0
76 1 2.2693605369428846 6.4828728894671235 4.001215860833 0 0 0
106 1 4.599834824674015 8.110152418977627 4.001215860833001 0 0 0
108 1 3.434597680563009 7.301035725163745 6.019465798333001 0 0 0
109 1 1.1041233921740166 8.110152418977627 6.0194657983330035 0 0 0
201 1 4.599834824674013 8.110152418977627 8.037715735832997 0 0 0
203 1 3.4345976805630083 7.301035725163741 1.9829659233329981 0 0 0
204 1 1.104123392174016 8.110152418977624 1.982965923333 0 0 0
5 1 5.76507196944288 6.482872889467122 1.9829659233330026 0 0 0
69 1 8.095546258483314 5.66978142158897 1.9829659233330021 0 0 0
70 1 9.260783401942883 6.482872889467123 8.037715735832995 0 0 0
71 1 6.93030911523522 4.866340815388796 8.037715735833 0 0 0
73 1 5.765071969442885 6.482872889467128 6.019465798333003 0 0 0
81 1 8.095546258483315 5.669781421588975 6.019465798333002 0 0 0
130 1 8.095546257174012 8.11015241897763 1.9829659233330008 0 0 0
132 1 6.930309113063009 7.301035725163749 8.037715735832997 0 0 0
188 1 8.095546257174012 8.110152418977624 6.0194657983330035 0 0 0
190 1 6.930309113063007 7.301035725163746 4.001215860833 0 0 0
199 1 9.260783401942884 6.482872889467124 4.0012158608330015 0 0 0
200 1 6.930309115235222 4.866340815388797 4.001215860833 0 0 0
32 1 13.921731980235222 4.866340815388798 8.037715735833004 0 0 0
35 1 11.591257690983316 5.669781421588972 8.037715735833002 0 0 0
38 1 12.756494834442885 6.482872889467125 1.9829659233329981 0 0 0
68 1 10.426020547735218 4.866340815388795 1.982965923333 0 0 0
77 1 13.921731980235222 4.866340815388797 4.001215860832999 0 0 0
78 1 11.591257690983316 5.669781421588973 4.0012158608330015 0 0 0
79 1 12.756494834442881 6.482872889467126 6.019465798332999 0 0 0
80 1 10.426020547735222 4.866340815388798 6.019465798332999 0 0 0
111 1 13.921731978063006 7.301035725163746 4.001215860832999 0 0 0
112 1 11.591257689674016 8.110152418977627 4.001215860832997 0 0 0
126 1 13.921731978063008 7.301035725163745 8.037715735833 0 0 0
127 1 11.591257689674016 8.110152418977627 8.037715735832998 0 0 0
129 1 10.426020545563011 7.301035725163745 1.9829659233330008 0 0 0
187 1 10.426020545563008 7.301035725163741 6.019465798333001 0 0 0
51 1 4.599834828949681 10.646106606253088 4.001215860833001 0 0 0
53 1 3.4345976830387537 9.739870679471204 6.019465798332999 0 0 0
54 1 1.1041233964496773 10.646106606253088 6.019465798333001 0 0 0
64 1 3.4345976862672476 12.0599275298117 6.019465798333 0 0 0
110 1 2.269360537322818 8.915943900229541 4.001215860833 0 0 0
152 1 3.4345976830387555 9.7398706794712 1.982965923333003 0 0 0
153 1 1.1041233964496786 10.64610660625309 1.9829659233330008 0 0 0
154 1 2.2693605418236764 11.336941751969352 8.037715735832995 0 0 0
177 1 2.269360541823677 11.336941751969349 4.001215860833002 0 0 0
191 1 4.599834828949681 10.646106606253088 8.037715735832997 0 0 0
195 1 3.4345976862672454 12.059927529811704 1.9829659233330004 0 0 0
205 1 2.2693605373228163 8.915943900229538 8.037715735832998 0 0 0
3 1 6.930309115538753 9.7398706794712 4.001215860832998 0 0 0
40 1 6.930309118767247 12.059927529811697 8.037715735833 0 0 0
48 1 8.095546261449684 10.646106606253088 1.9829659233329968 0 0 0
49 1 9.260783406823672 11.336941751969352 8.037715735832998 0 0 0
50 1 6.930309115538754 9.739870679471206 8.037715735833 0 0 0
52 1 5.765071974323673 11.33694175196935 6.019465798333002 0 0 0
98 1 6.930309118767245 12.059927529811699 4.001215860833 0 0 0
107 1 5.765071969822817 8.915943900229538 6.019465798333001 0 0 0
131 1 9.260783402322815 8.915943900229541 8.037715735832998 0 0 0
184 1 8.09554626144968 10.646106606253088 6.019465798333003 0 0 0
185 1 9.260783406823675 11.33694175196935 4.001215860833001 0 0 0
189 1 9.260783402322817 8.915943900229545 4.001215860832996 0 0 0
192 1 5.765071974323674 11.336941751969349 1.9829659233330001 0 0 0
202 1 5.7650719698228166 8.915943900229543 1.9829659233330017 0 0 0
34 1 10.426020551267246 12.0599275298117 1.9829659233330033 0 0 0
66 1 13.921731983767247 12.0599275298117 4.001215860832999 0 0 0
96 1 10.426020551267248 12.0599275298117 6.019465798332998 0 0 0
128 1 12.756494834822815 8.91594390022954 1.982965923333002 0 0 0
155 1 13.92173198053875 9.739870679471206 8.037715735832995 0 0 0
156 1 11.591257693949682 10.646106606253092 8.037715735832998 0 0 0
157 1 12.756494839323677 11.336941751969352 1.9829659233329997 0 0 0
158 1 10.426020548038752 9.739870679471204 1.9829659233330028 0 0 0
179 1 13.921731980538752 9.7398706794712 4.001215860833002 0 0 0
181 1 11.59125769394968 10.646106606253086 4.001215860833 0 0 0
182 1 12.756494839323675 11.336941751969349 6.019465798333001 0 0 0
183 1 10.426020548038755 9.739870679471206 6.019465798333001 0 0 0
186 1 12.756494834822817 8.915943900229543 6.019465798333002 0 0 0
197 1 13.921731983767247 12.0599275298117 8.037715735833 0 0 0
63 1 2.269360528946562 18.56763815194241 4.001215860833002 0 0 0
65 1 4.59983481815079 19.290062590119472 4.001215860833 0 0 0
67 1 1.1041233856507906 19.290062590119472 6.019465798332997 0 0 0
89 1 2.2693605322831547 20.8877101384712 8.037715735833 0 0 0
90 1 3.434597674570889 19.978864390141347 1.982965923333005 0 0 0
174 1 2.2693605322831556 20.88771013847119 4.001215860833001 0 0 0
175 1 3.434597674570889 19.978864390141347 6.019465798333 0 0 0
194 1 2.269360528946564 18.56763815194241 8.037715735832998 0 0 0
196 1 4.599834818150792 19.290062590119472 8.037715735832997 0 0 0
198 1 1.1041233856507877 19.290062590119472 1.982965923333 0 0 0
24 1 9.260783393946566 18.56763815194241 8.037715735832997 0 0 0
41 1 8.095546250650788 19.29006259011947 1.9829659233330024 0 0 0
43 1 9.260783397283157 20.88771013847119 4.001215860833 0 0 0
46 1 6.9303091070708875 19.978864390141347 4.001215860832999 0 0 0
62 1 5.765071961446564 18.56763815194241 6.019465798333 0 0 0
88 1 5.7650719647831545 20.887710138471196 1.982965923333002 0 0 0
95 1 9.260783393946564 18.567638151942408 4.001215860833 0 0 0
99 1 8.095546250650793 19.290062590119472 6.019465798333001 0 0 0
101 1 9.260783397283154 20.887710138471192 8.037715735832997 0 0 0
104 1 6.9303091070708875 19.978864390141347 8.037715735832998 0 0 0
173 1 5.7650719647831545 20.887710138471192 6.019465798332999 0 0 0
193 1 5.765071961446562 18.567638151942415 1.9829659233330004 0 0 0
9 1 12.756494826446563 18.56763815194241 1.9829659233330001 0 0 0
39 1 11.591257683150786 19.290062590119472 8.037715735832998 0 0 0
42 1 12.756494829783156 20.887710138471196 6.019465798332997 0 0 0
44 1 10.426020539570887 19.978864390141347 6.019465798332999 0 0 0
92 1 13.921731972070889 19.978864390141347 8.037715735833002 0 0 0
94 1 12.756494826446563 18.56763815194241 6.019465798332998 0 0 0
97 1 11.591257683150786 19.290062590119476 4.001215860833002 0 0 0
100 1 12.756494829783154 20.887710138471203 1.9829659233330013 0 0 0
102 1 10.42602053957089 19.978864390141347 1.9829659233330024 0 0 0
178 1 13.92173197207089 19.978864390141347 4.001215860832998 0 0 0
91 1 4.5998348215663025 21.708097087865678 8.037715735833 0 0 0
93 1 1.1041233890663007 21.708097087865674 1.982965923332999 0 0 0
114 1 2.2693605361327056 23.325944251531723 8.037715735832997 0 0 0
115 1 3.434597678881986 22.51324583435377 1.9829659233329946 0 0 0
116 1 4.599834825311319 24.135116364337133 8.037715735833 0 0 0
118 1 1.1041233928113197 24.13511636433714 1.9829659233330013 0 0 0
134 1 2.2693605361327007 23.32594425153173 4.001215860833006 0 0 0
135 1 3.4345976788819828 22.51324583435377 6.019465798333004 0 0 0
136 1 4.599834825311319 24.135116364337136 4.001215860833 0 0 0
138 1 1.1041233928113263 24.135116364337136 6.019465798332999 0 0 0
176 1 4.599834821566306 21.708097087865674 4.001215860832999 0 0 0
180 1 1.1041233890663031 21.70809708786568 6.019465798333001 0 0 0
222 1 3.4345976824506437 24.956583075465282 1.9829659233330008 0 0 0
224 1 3.434597682450639 24.956583075465275 6.019465798332999 0 0 0
23 1 6.930309114950642 24.95658307546528 4.001215860833002 0 0 0
47 1 8.095546254066305 21.708097087865678 6.0194657983330035 0 0 0
83 1 9.260783401132702 23.325944251531727 4.001215860833002 0 0 0
86 1 6.930309111381982 22.51324583435377 4.001215860832996 0 0 0
87 1 8.09554625781132 24.135116364337133 6.019465798333002 0 0 0
105 1 8.095546254066303 21.708097087865678 1.9829659233329993 0 0 0
113 1 5.765071968632702 23.325944251531727 1.982965923332999 0 0 0
133 1 5.765071968632697 23.325944251531727 6.0194657983330035 0 0 0
147 1 9.260783401132693 23.325944251531727 8.037715735832997 0 0 0
150 1 6.930309111381984 22.513245834353775 8.037715735832998 0 0 0
151 1 8.09554625781132 24.135116364337136 1.982965923332999 0 0 0
217 1 6.930309114950643 24.956583075465275 8.037715735833 0 0 0
15 1 10.426020547450642 24.95658307546528 6.019465798333001 0 0 0
45 1 11.591257686566305 21.708097087865678 4.001215860832997 0 0 0
56 1 13.921731979950641 24.95658307546528 8.037715735833 0 0 0
60 1 10.426020547450642 24.956583075465282 1.982965923332999 0 0 0
82 1 12.756494833632702 23.325944251531723 6.019465798332996 0 0 0
84 1 10.42602054388198 22.51324583435377 6.019465798332998 0 0 0
85 1 11.59125769031132 24.135116364337136 4.001215860833 0 0 0
103 1 11.591257686566307 21.708097087865674 8.037715735833006 0 0 0
117 1 13.921731976381984 22.51324583435377 8.037715735833 0 0 0
137 1 13.921731976381981 22.51324583435377 4.001215860833003 0 0 0
146 1 12.756494833632699 23.32594425153172 1.982965923332999 0 0 0
148 1 10.426020543881988 22.51324583435377 1.9829659233330017 0 0 0
149 1 11.591257690311322 24.13511636433714 8.037715735833006 0 0 0
226 1 13.921731979950643 24.956583075465282 4.001215860833002 0 0 0
2 1 1.104123392353 26.562058453958 6.019465798333 0 0 0
4 1 3.434597727296 29.91037779161 6.019465798333 0 0 0
13 1 2.26936048991 28.290681807918 8.037715735833 0 0 0
17 1 3.434597727296 27.427767215617 1.982965923333 0 0 0
22 1 4.599834824853 28.824033467998 8.037715735833 0 0 0
30 1 1.104123392353 28.824033467998 1.982965923333 0 0 0
55 1 4.599834824853 26.562058453958 8.037715735833 0 0 0
57 1 1.104123392353 26.562058453958 1.982965923333 0 0 0
139 1 2.26936048991 28.290681807918 4.001215860833 0 0 0
140 1 3.434597727296 27.427767215617 6.019465798333 0 0 0
141 1 4.599834824853 28.824033467998 4.001215860833 0 0 0
143 1 1.104123392353 28.824033467998 6.019465798333 0 0 0
220 1 2.2693605398835657 25.765983531576104 8.037715735833 0 0 0
223 1 2.2693605398835666 25.765983531576104 4.0012158608330015 0 0 0
225 1 4.599834824853 26.562058453958 4.001215860833 0 0 0
229 1 3.434597727296 29.91037779161 1.982965923333 0 0 0
8 1 5.76507192241 28.290681807918 1.982965923333 0 0 0
10 1 9.260783404883572 25.765983531576104 4.001215860832999 0 0 0
27 1 8.095546257353 26.562058453958 6.019465798333 0 0 0
59 1 9.260783404883568 25.765983531576104 8.037715735832998 0 0 0
145 1 9.26078335491 28.290681807918 4.001215860833 0 0 0
161 1 6.930309159796 29.91037779161 4.001215860833 0 0 0
170 1 6.930309159796 29.91037779161 8.037715735833 0 0 0
215 1 6.930309159796 27.427767215617 4.001215860833 0 0 0
216 1 8.095546257353 28.824033467998 6.019465798333 0 0 0
218 1 5.765071972383568 25.765983531576104 1.9829659233329993 0 0 0
219 1 8.095546257353 26.562058453958 1.982965923333 0 0 0
221 1 5.765071972383564 25.765983531576104 6.019465798332999 0 0 0
235 1 9.26078335491 28.290681807918 8.037715735833 0 0 0
238 1 6.930309159796 27.427767215617 8.037715735833 0 0 0
239 1 8.095546257353 28.824033467998 1.982965923333 0 0 0
240 1 5.76507192241 28.290681807918 6.019465798333 0 0 0
6 1 12.756494837383567 25.765983531576108 6.019465798332999 0 0 0
18 1 11.591257689853 26.562058453958 4.001215860833 0 0 0
26 1 13.921732024796 27.427767215617 8.037715735833 0 0 0
29 1 13.921732024796 29.91037779161 4.001215860833 0 0 0
37 1 10.426020592296 29.91037779161 6.019465798333 0 0 0
58 1 12.756494837383567 25.765983531576108 1.9829659233329995 0 0 0
61 1 11.591257689853 26.562058453958 8.037715735833 0 0 0
142 1 13.921732024796 27.427767215617 4.001215860833 0 0 0
144 1 12.75649478741 28.290681807918 6.019465798333 0 0 0
167 1 10.426020592296 29.91037779161 1.982965923333 0 0 0
212 1 10.426020592296 27.427767215617 6.019465798333 0 0 0
214 1 11.591257689853 28.824033467998 4.001215860833 0 0 0
232 1 13.921732024796 29.91037779161 8.037715735833 0 0 0
234 1 12.75649478741 28.290681807918 1.982965923333 0 0 0
236 1 10.426020592296 27.427767215617 1.982965923333 0 0 0
237 1 11.591257689853 28.824033467998 8.037715735833 0 0 0

Velocities

14 0 0 0
20 0 0 0
119 0 0 0
162 0 0 0
164 0 0 0
165 0 0 0
171 0 0 0
207 0 0 0
209 0 0 0
210 0 0 0
211 0 0 0
227 0 0 0
230 0 0 0
231 0 0 0
16 0 0 0
21 0 0 0
25 0 0 0
124 0 0 0
125 0 0 0
159 0 0 0
160 0 0 0
163 0 0 0
168 0 0 0
169 0 0 0
172 0 0 0
206 0 0 0
208 0 0 0
228 0 0 0
1 0 0 0
7 0 0 0
11 0 0 0
33 0 0 0
36 0 0 0
120 0 0 0
121 0 0 0
122 0 0 0
123 0 0 0
166 0 0 0
213 0 0 0
233 0 0 0
12 0 0 0
19 0 0 0
28 0 0 0
31 0 0 0
72 0 0 0
74 0 0 0
75 0 0 0
76 0 0 0
106 0 0 0
108 0 0 0
109 0 0 0
201 0 0 0
203 0 0 0
204 0 0 0
5 0 0 0
69 0 0 0
70 0 0 0
71 0 0 0
73 0 0 0
81 0 0 0
130 0 0 0
132 0 0 0
188 0 0 0
190 0 0 0
199 0 0 0
200 0 0 0
32 0 0 0
35 0 0 0
38 0 0 0
68 0 0 0
77 0 0 0
78 0 0 0
79 0 0 0
80 0 0 0
111 0 0 0
112 0 0 0
126 0 0 0
127 0 0 0
129 0 0 0
187 0 0 0
51 0 0 0
53 0 0 0
54 0 0 0
64 0 0 0
110 0 0 0
152 0 0 0
153 0 0 0
154 0 0 0
177 0 0 0
191 0 0 0
195 0 0 0
205 0 0 0
3 0 0 0
40 0 0 0
48 0 0 0
49 0 0 0
50 0 0 0
52 0 0 0
98 0 0 0
107 0 0 0
131 0 0 0
184 0 0 0
185 0 0 0
189 0 0 0
192 0 0 0
202 0 0 0
34 0 0 0
66 0 0 0
96 0 0 0
128 0 0 0
155 0 0 0
156 0 0 0
157 0 0 0
158 0 0 0
179 0 0 0
181 0 0 0
182 0 0 0
183 0 0 0
186 0 0 0
197 0 0 0
63 0 0 0
65 0 0 0
67 0 0 0
89 0 0 0
90 0 0 0
174 0 0 0
175 0 0 0
194 0 0 0
196 0 0 0
198 0 0 0
24 0 0 0
41 0 0 0
43 0 0 0
46 0 0 0
62 0 0 0
88 0 0 0
95 0 0 0
99 0 0 0
101 0 0 0
104 0 0 0
173 0 0 0
193 0 0 0
9 0 0 0
39 0 0 0
42 0 0 0
44 0 0 0
92 0 0 0
94 0 0 0
97 0 0 0
100 0 0 0
102 0 0 0
178 0 0 0
91 0 0 0
93 0 0 0
114 0 0 0
115 0 0 0
116 0 0 0
118 0 0 0
134 0 0 0
135 0 0 0
136 0 0 0
138 0 0 0
176 0 0 0
180 0 0 0
222 0 0 0
224 0 0 0
23 0 0 0
47 0 0 0
83 0 0 0
86 0 0 0
87 0 0 0
105 0 0 0
113 0 0 0
133 0 0 0
147 0 0 0
150 0 0 0
151 0 0 0
217 0 0 0
15 0 0 0
45 0 0 0
56 0 0 0
60 0 0 0
82 0 0 0
84 0 0 0
85 0 0 0
103 0 0 0
117 0 0 0
137 0 0 0
146 0 0 0
148 0 0 0
149 0 0 0
226 0 0 0
2 0 0 0
4 0 0 0
13 0 0 0
17 0 0 0
22 0 0 0
30 0 0 0
55 0 0 0
57 0 0 0
139 0 0 0
140 0 0 0
141 0 0 0
143 0 0 0
220 0 0 0
223 0 0 0
225 0 0 0
229 0 0 0
8 0 0 0
10 0 0 0
27 0 0 0
59 0 0 0
145 0 0 0
161 0 0 0
170 0 0 0
215 0 0 0
216 0 0 0
218 0 0 0
219 0 0 0
221 0 0 0
235 0 0 0
238 0 0 0
239 0 0 0
240 0 0 0
6 0 0 0
18 0 0 0
26 0 0 0
29 0 0 0
37 0 0 0
58 0 0 0
61 0 0 0
142 0 0 0
144 0 0 0
167 0 0 0
212 0 0 0
214 0 0 0
232 0 0 0
234 0 0 0
236 0 0 0
237 0 0 0
