LAMMPS data file via write_data, version 29 Aug 2024, timestep = 16, units = metal

288 atoms
1 atom types

0 11.317147 xlo xhi
0 26.663582 ylo yhi
0 11.317147 zlo zhi

Masses

1 55.8

Atoms # atomic

1 1 0 0 0 0 0 0
2 1 1.414643375 1.414643557616 1.414643375 0 0 0
3 1 0 0 2.82928675 0 0 0
4 1 1.414643375 1.414643557616 4.243930125 0 0 0
9 1 0 2.82928660596 0 0 0 0
10 1 1.4146433750000098 4.329839876576942 1.4146433750000078 0 0 0
11 1 0 2.82928660596 2.82928675 0 0 0
12 1 1.4146433749999794 4.329839876576951 4.243930124999991 0 0 0
73 1 2.82928675 0 0 0 0 0
74 1 4.243930125 1.414643557616 1.414643375 0 0 0
75 1 2.82928675 0 2.82928675 0 0 0
76 1 4.243930125 1.414643557616 4.243930125 0 0 0
81 1 2.82928675 2.82928660596 0 0 0 0
82 1 4.243930124999985 4.329839876576935 1.4146433749999945 0 0 0
83 1 2.82928675 2.82928660596 2.82928675 0 0 0
84 1 4.243930125000004 4.329839876576934 4.243930125000008 0 0 0
145 1 5.6585735 0 0 0 0 0
146 1 7.073216875 1.414643557616 1.414643375 0 0 0
147 1 5.6585735 0 2.82928675 0 0 0
148 1 7.073216875 1.414643557616 4.243930125 0 0 0
153 1 5.6585735 2.82928660596 0 0 0 0
154 1 7.073216875000018 4.329839876576931 1.4146433750000198 0 0 0
155 1 5.6585735 2.82928660596 2.82928675 0 0 0
156 1 7.073216874999996 4.329839876576939 4.24393012499997 0 0 0
217 1 8.48786025 0 0 0 0 0
218 1 9.902503625 1.414643557616 1.414643375 0 0 0
219 1 8.48786025 0 2.82928675 0 0 0
220 1 9.902503625 1.414643557616 4.243930125 0 0 0
225 1 8.48786025 2.82928660596 0 0 0 0
226 1 9.902503624999982 4.329839876576927 1.4146433750000003 0 0 0
227 1 8.48786025 2.82928660596 2.82928675 0 0 0
228 1 9.902503625000005 4.3298398765769255 4.243930124999988 0 0 0
17 1 5.663238606265034e-15 5.825096780502043 11.317146999999991 0 0 -1
18 1 1.4146433750000176 7.327090769466709 1.414643374999994 0 0 0
19 1 1.9118040585693298e-14 5.82509678050203 2.8292867500000245 0 0 0
20 1 1.4146433749999772 7.327090769466714 4.243930124999991 0 0 0
25 1 11.317146999999972 8.827548295299938 1.8249294725943438e-15 -1 0 0
27 1 11.317146999999975 8.827548295299934 2.829286750000034 -1 0 0
89 1 2.829286750000007 5.825096780502045 5.969976739908508e-15 0 0 0
90 1 4.243930124999966 7.327090769466732 1.414643374999966 0 0 0
91 1 2.829286749999978 5.825096780502013 2.829286749999983 0 0 0
92 1 4.243930125000016 7.327090769466735 4.243930125000025 0 0 0
97 1 2.829286750000035 8.827548295299922 9.010003878876847e-15 0 0 0
99 1 2.8292867500000094 8.827548295299925 2.829286749999992 0 0 0
161 1 5.65857349999999 5.825096780502043 11.317146999999975 0 0 -1
162 1 7.073216875000021 7.327090769466708 1.414643375000017 0 0 0
163 1 5.658573500000029 5.825096780502022 2.829286750000023 0 0 0
164 1 7.073216874999992 7.327090769466713 4.243930124999962 0 0 0
169 1 5.658573499999962 8.827548295299932 11.317146999999972 0 0 -1
171 1 5.658573500000005 8.82754829529993 2.829286750000034 0 0 0
233 1 8.487860250000008 5.825096780502042 9.861878244892794e-15 0 0 0
234 1 9.902503624999985 7.3270907694667295 1.4146433749999856 0 0 0
235 1 8.487860249999972 5.8250967805020375 2.8292867499999983 0 0 0
236 1 9.90250362500001 7.327090769466738 4.243930124999976 0 0 0
241 1 8.487860250000034 8.827548295299918 7.849907676937546e-15 0 0 0
243 1 8.487860250000002 8.827548295299916 2.829286750000007 0 0 0
26 1 1.414643374999994 10.326827805470437 1.41464337499999 0 0 0
28 1 1.414643374999957 10.326827805470456 4.24393012499998 0 0 0
33 1 11.317146999999999 11.826158421232277 11.317146999999977 -1 0 -1
34 1 1.414643375000017 13.325570985000537 1.4146433750000191 0 0 0
35 1 4.921977593469796e-15 11.826158421232282 2.8292867500000476 0 0 0
36 1 1.4146433749999974 13.325570985000514 4.243930124999973 0 0 0
98 1 4.243930124999991 10.32682780547041 1.414643374999972 0 0 0
100 1 4.243930125000026 10.326827805470435 4.24393012500002 0 0 0
105 1 2.829286749999998 11.826158421232288 11.317146999999983 0 0 -1
106 1 4.243930124999972 13.325570985000548 1.4146433749999971 0 0 0
107 1 2.8292867499999867 11.82615842123231 2.829286750000024 0 0 0
108 1 4.243930124999984 13.325570985000521 4.243930124999998 0 0 0
170 1 7.073216874999997 10.326827805470433 1.4146433750000074 0 0 0
172 1 7.073216874999981 10.326827805470453 4.243930124999957 0 0 0
177 1 5.658573500000003 11.826158421232268 11.31714699999995 0 0 -1
178 1 7.073216875000009 13.325570985000533 1.4146433750000076 0 0 0
179 1 5.6585735000000295 11.82615842123228 2.8292867500000556 0 0 0
180 1 7.073216875000023 13.325570985000507 4.243930124999959 0 0 0
242 1 9.902503625000016 10.326827805470417 1.4146433749999936 0 0 0
244 1 9.902503625000023 10.326827805470439 4.243930124999968 0 0 0
249 1 8.487860250000004 11.826158421232297 11.317146999999968 0 0 -1
250 1 9.902503624999987 13.325570985000542 1.4146433749999996 0 0 0
251 1 8.487860249999992 11.826158421232302 2.8292867500000476 0 0 0
252 1 9.90250362499999 13.325570985000518 4.243930124999974 0 0 0
41 1 11.317146999999993 14.825100200799849 11.31714699999999 -1 0 -1
42 1 1.414643375000004 16.32388644601456 1.4146433750000005 0 0 0
43 1 11.317146999999997 14.825100200799836 2.829286750000012 -1 0 0
44 1 1.4146433749999847 16.323886446014555 4.243930125000007 0 0 0
113 1 2.8292867500000205 14.825100200799838 1.5399493469283223e-14 0 0 0
114 1 4.243930124999995 16.323886446014555 1.4146433749999845 0 0 0
115 1 2.8292867500000076 14.825100200799826 2.8292867499999863 0 0 0
116 1 4.2439301250000065 16.323886446014548 4.243930125000008 0 0 0
185 1 5.658573499999985 14.825100200799852 11.317146999999995 0 0 -1
186 1 7.073216875000003 16.32388644601456 1.4146433749999863 0 0 0
187 1 5.658573499999996 14.825100200799838 2.8292867500000005 0 0 0
188 1 7.073216875000008 16.323886446014548 4.243930125000006 0 0 0
257 1 8.487860250000017 14.825100200799847 4.701084524811982e-15 0 0 0
258 1 9.902503624999992 16.323886446014555 1.4146433749999845 0 0 0
259 1 8.487860250000006 14.825100200799833 2.8292867500000094 0 0 0
260 1 9.902503624999996 16.32388644601455 4.243930125000004 0 0 0
49 1 2.039954810101126e-15 17.822990079937533 11.31714699999999 0 0 -1
50 1 1.4146433749999947 19.32218627769336 1.4146433750000136 0 0 0
51 1 8.180595349553623e-15 17.82299007993755 2.8292867499999987 0 0 0
52 1 1.4146433749999767 19.322186277693373 4.243930124999997 0 0 0
57 1 4.5658374604974254e-15 20.82033192358989 11.317146999999979 0 0 -1
59 1 3.1074204974864614e-15 20.820331923589876 2.82928675000001 0 0 0
121 1 2.8292867500000063 17.822990079937526 2.3812515477435012e-14 0 0 0
122 1 4.243930125 19.322186277693362 1.4146433749999985 0 0 0
123 1 2.8292867500000005 17.82299007993754 2.829286749999972 0 0 0
124 1 4.243930125000015 19.32218627769338 4.243930125000006 0 0 0
129 1 2.829286750000013 20.820331923589894 11.317146999999997 0 0 -1
131 1 2.8292867500000036 20.820331923589887 2.8292867500000036 0 0 0
193 1 5.658573499999989 17.82299007993753 1.6354256293413398e-14 0 0 0
194 1 7.073216875000009 19.322186277693365 1.4146433749999932 0 0 0
195 1 5.658573499999997 17.82299007993754 2.8292867499999845 0 0 0
196 1 7.073216875 19.322186277693373 4.243930124999997 0 0 0
201 1 5.6585734999999975 20.820331923589883 11.31714699999999 0 0 -1
203 1 5.6585734999999895 20.820331923589883 2.8292867500000165 0 0 0
265 1 8.487860250000006 17.82299007993753 1.4394785012074336e-14 0 0 0
266 1 9.90250362499999 19.32218627769337 1.4146433749999998 0 0 0
267 1 8.48786025 17.82299007993754 2.829286749999993 0 0 0
268 1 9.902503625000005 19.32218627769337 4.243930124999995 0 0 0
273 1 8.48786025 20.820331923589887 6.133076942835653e-16 0 0 0
275 1 8.487860250000013 20.82033192358989 2.8292867500000014 0 0 0
58 1 1.414643375000001 22.30759424272884 1.4146433750000034 0 0 0
60 1 1.4146433750000016 22.307594242728825 4.243930125000001 0 0 0
65 1 0 23.83429539404 0 0 0 0
66 1 1.414643375 25.248937423841 1.414643375 0 0 0
67 1 0 23.83429539404 2.82928675 0 0 0
68 1 1.414643375 25.248937423841 4.243930125 0 0 0
130 1 4.243930124999992 22.307594242728833 1.4146433749999987 0 0 0
132 1 4.2439301249999986 22.30759424272883 4.243930124999999 0 0 0
137 1 2.82928675 23.83429539404 0 0 0 0
138 1 4.243930125 25.248937423841 1.414643375 0 0 0
139 1 2.82928675 23.83429539404 2.82928675 0 0 0
140 1 4.243930125 25.248937423841 4.243930125 0 0 0
202 1 7.073216875000015 22.307594242728833 1.414643374999999 0 0 0
204 1 7.07321687500001 22.307594242728833 4.243930125000005 0 0 0
209 1 5.6585735 23.83429539404 0 0 0 0
210 1 7.073216875 25.248937423841 1.414643375 0 0 0
211 1 5.6585735 23.83429539404 2.82928675 0 0 0
212 1 7.073216875 25.248937423841 4.243930125 0 0 0
274 1 9.90250362499999 22.307594242728833 1.414643375000004 0 0 0
276 1 9.902503625000003 22.307594242728825 4.243930124999985 0 0 0
281 1 8.48786025 23.83429539404 0 0 0 0
282 1 9.902503625 25.248937423841 1.414643375 0 0 0
283 1 8.48786025 23.83429539404 2.82928675 0 0 0
284 1 9.902503625 25.248937423841 4.243930125 0 0 0
5 1 0 0 5.6585735 0 0 0
6 1 1.414643375 1.414643557616 7.073216875 0 0 0
7 1 0 0 8.48786025 0 0 0
8 1 1.414643375 1.414643557616 9.902503625 0 0 0
13 1 0 2.82928660596 5.6585735 0 0 0
14 1 1.4146433750000058 4.329839876576949 7.0732168750000195 0 0 0
15 1 0 2.82928660596 8.48786025 0 0 0
16 1 1.4146433750000056 4.329839876576943 9.902503624999989 0 0 0
77 1 2.82928675 0 5.6585735 0 0 0
78 1 4.243930125 1.414643557616 7.073216875 0 0 0
79 1 2.82928675 0 8.48786025 0 0 0
80 1 4.243930125 1.414643557616 9.902503625 0 0 0
85 1 2.82928675 2.82928660596 5.6585735 0 0 0
86 1 4.243930125000009 4.329839876576939 7.0732168749999875 0 0 0
87 1 2.82928675 2.82928660596 8.48786025 0 0 0
88 1 4.243930124999998 4.329839876576935 9.902503625000007 0 0 0
149 1 5.6585735 0 5.6585735 0 0 0
150 1 7.073216875 1.414643557616 7.073216875 0 0 0
151 1 5.6585735 0 8.48786025 0 0 0
152 1 7.073216875 1.414643557616 9.902503625 0 0 0
157 1 5.6585735 2.82928660596 5.6585735 0 0 0
158 1 7.0732168750000035 4.329839876576946 7.07321687500001 0 0 0
159 1 5.6585735 2.82928660596 8.48786025 0 0 0
160 1 7.073216874999999 4.329839876576934 9.902503625 0 0 0
221 1 8.48786025 0 5.6585735 0 0 0
222 1 9.902503625 1.414643557616 7.073216875 0 0 0
223 1 8.48786025 0 8.48786025 0 0 0
224 1 9.902503625 1.414643557616 9.902503625 0 0 0
229 1 8.48786025 2.82928660596 5.6585735 0 0 0
230 1 9.902503624999987 4.3298398765769415 7.073216875000011 0 0 0
231 1 8.48786025 2.82928660596 8.48786025 0 0 0
232 1 9.902503624999996 4.329839876576925 9.902503625000005 0 0 0
21 1 2.4677861133840106e-14 5.825096780502025 5.658573499999999 0 0 0
22 1 1.4146433749999996 7.327090769466713 7.073216875000014 0 0 0
23 1 2.7140222455229278e-14 5.825096780502024 8.487860249999981 0 0 0
24 1 1.4146433750000058 7.327090769466709 9.902503625000003 0 0 0
29 1 11.317146999999988 8.827548295299925 5.658573499999993 -1 0 0
31 1 9.286108716467718e-15 8.827548295299943 8.487860249999974 0 0 0
93 1 2.8292867500000085 5.8250967805020215 5.658573500000016 0 0 0
94 1 4.243930125000005 7.327090769466736 7.073216874999957 0 0 0
95 1 2.8292867499999628 5.825096780502021 8.487860249999986 0 0 0
96 1 4.243930125000006 7.327090769466737 9.902503625000056 0 0 0
101 1 2.8292867500000543 8.827548295299927 5.658573500000024 0 0 0
103 1 2.8292867499999867 8.827548295299929 8.487860249999983 0 0 0
165 1 5.6585734999999735 5.825096780502029 5.658573500000003 0 0 0
166 1 7.0732168750000195 7.327090769466715 7.0732168750000115 0 0 0
167 1 5.658573500000021 5.825096780502023 8.487860249999995 0 0 0
168 1 7.073216874999993 7.327090769466714 9.902503625000016 0 0 0
173 1 5.658573499999943 8.827548295299927 5.658573500000009 0 0 0
175 1 5.658573500000012 8.827548295299941 8.487860249999988 0 0 0
237 1 8.487860249999994 5.825096780502029 5.658573500000028 0 0 0
238 1 9.902503624999975 7.3270907694667295 7.073216875000004 0 0 0
239 1 8.487860249999994 5.825096780502029 8.487860249999969 0 0 0
240 1 9.902503624999996 7.32709076946673 9.90250362500003 0 0 0
245 1 8.487860250000024 8.827548295299911 5.658573500000024 0 0 0
247 1 8.487860250000008 8.827548295299923 8.487860249999953 0 0 0
30 1 1.4146433749999883 10.326827805470439 7.073216875000037 0 0 0
32 1 1.414643374999994 10.326827805470451 9.902503625000003 0 0 0
37 1 1.4441699175836935e-14 11.826158421232279 5.658573499999974 0 0 0
38 1 1.4146433750000194 13.325570985000528 7.073216875000036 0 0 0
39 1 3.9361224186202706e-14 11.826158421232284 8.48786025 0 0 0
40 1 1.4146433750000031 13.32557098500051 9.902503624999989 0 0 0
102 1 4.243930125000015 10.32682780547042 7.073216874999961 0 0 0
104 1 4.24393012500003 10.326827805470428 9.902503625000055 0 0 0
109 1 2.8292867500000205 11.826158421232298 5.6585735 0 0 0
110 1 4.243930124999996 13.325570985000548 7.073216874999982 0 0 0
111 1 2.8292867499999477 11.826158421232305 8.487860249999997 0 0 0
112 1 4.243930125000002 13.325570985000521 9.902503625000021 0 0 0
174 1 7.0732168750000115 10.32682780547044 7.073216875000028 0 0 0
176 1 7.073216874999972 10.326827805470456 9.902503625000003 0 0 0
181 1 5.658573499999983 11.826158421232273 5.658573499999986 0 0 0
182 1 7.073216875000009 13.325570985000523 7.073216875000038 0 0 0
183 1 5.658573500000054 11.826158421232286 8.487860250000013 0 0 0
184 1 7.073216874999997 13.325570985000502 9.90250362499999 0 0 0
246 1 9.90250362499999 10.326827805470414 7.073216875000014 0 0 0
248 1 9.902503625000008 10.326827805470439 9.90250362500003 0 0 0
253 1 8.487860249999994 11.826158421232293 5.658573499999985 0 0 0
254 1 9.90250362499998 13.325570985000539 7.0732168750000115 0 0 0
255 1 8.487860249999974 11.826158421232291 8.48786024999999 0 0 0
256 1 9.90250362499999 13.325570985000526 9.902503625000021 0 0 0
45 1 11.317146999999995 14.825100200799861 5.658573500000001 -1 0 0
46 1 1.4146433750000003 16.32388644601455 7.073216874999994 0 0 0
47 1 1.5318968299944197e-14 14.82510020079984 8.487860249999988 0 0 0
48 1 1.4146433749999876 16.323886446014562 9.902503625000001 0 0 0
117 1 2.8292867500000183 14.82510020079984 5.658573500000017 0 0 0
118 1 4.243930125000001 16.323886446014548 7.073216874999985 0 0 0
119 1 2.8292867499999876 14.825100200799836 8.487860249999965 0 0 0
120 1 4.24393012500001 16.32388644601455 9.902503625000033 0 0 0
189 1 5.658573499999971 14.82510020079986 5.658573500000023 0 0 0
190 1 7.073216874999992 16.32388644601455 7.073216875000012 0 0 0
191 1 5.658573500000015 14.825100200799847 8.487860249999983 0 0 0
192 1 7.07321687499999 16.32388644601456 9.902503625000008 0 0 0
261 1 8.487860250000018 14.82510020079986 5.658573500000006 0 0 0
262 1 9.90250362499999 16.323886446014548 7.073216874999978 0 0 0
263 1 8.487860249999997 14.825100200799836 8.487860249999974 0 0 0
264 1 9.902503625000003 16.32388644601455 9.902503625000033 0 0 0
53 1 1.2562603639524125e-14 17.82299007993754 5.658573500000005 0 0 0
54 1 1.4146433749999878 19.322186277693362 7.073216875000014 0 0 0
55 1 2.6313564943476348e-14 17.822990079937547 8.487860250000002 0 0 0
56 1 1.4146433749999734 19.32218627769338 9.902503624999984 0 0 0
61 1 5.944042528297216e-15 20.820331923589883 5.65857349999999 0 0 0
63 1 1.9292740408776233e-14 20.820331923589883 8.48786025000001 0 0 0
125 1 2.8292867500000076 17.82299007993753 5.6585735000000215 0 0 0
126 1 4.2439301249999986 19.32218627769336 7.073216874999997 0 0 0
127 1 2.8292867499999836 17.822990079937547 8.487860249999983 0 0 0
128 1 4.243930125000011 19.322186277693376 9.902503625000005 0 0 0
133 1 2.829286749999999 20.82033192358989 5.658573500000006 0 0 0
135 1 2.8292867499999836 20.820331923589887 8.487860249999999 0 0 0
197 1 5.658573499999996 17.822990079937533 5.658573500000019 0 0 0
198 1 7.07321687500001 19.322186277693355 7.073216875000016 0 0 0
199 1 5.658573500000005 17.822990079937544 8.487860249999985 0 0 0
200 1 7.073216874999996 19.32218627769338 9.902503625 0 0 0
205 1 5.6585734999999895 20.82033192358988 5.65857349999999 0 0 0
207 1 5.658573500000005 20.82033192358988 8.487860250000013 0 0 0
269 1 8.487860250000006 17.822990079937536 5.658573500000004 0 0 0
270 1 9.902503625 19.32218627769336 7.073216874999991 0 0 0
271 1 8.487860249999981 17.822990079937544 8.487860249999981 0 0 0
272 1 9.902503625000016 19.322186277693376 9.902503625000005 0 0 0
277 1 8.487860250000004 20.820331923589883 5.6585734999999975 0 0 0
279 1 8.487860249999988 20.820331923589887 8.487860250000002 0 0 0
62 1 1.4146433750000087 22.307594242728836 7.073216874999996 0 0 0
64 1 1.4146433749999943 22.307594242728825 9.902503624999998 0 0 0
69 1 0 23.83429539404 5.6585735 0 0 0
70 1 1.414643375 25.248937423841 7.073216875 0 0 0
71 1 0 23.83429539404 8.48786025 0 0 0
72 1 1.414643375 25.248937423841 9.902503625 0 0 0
134 1 4.243930125000002 22.307594242728825 7.073216875000002 0 0 0
136 1 4.243930124999999 22.307594242728825 9.902503625000001 0 0 0
141 1 2.82928675 23.83429539404 5.6585735 0 0 0
142 1 4.243930125 25.248937423841 7.073216875 0 0 0
143 1 2.82928675 23.83429539404 8.48786025 0 0 0
144 1 4.243930125 25.248937423841 9.902503625 0 0 0
206 1 7.07321687500001 22.307594242728833 7.073216875000001 0 0 0
208 1 7.073216875000002 22.307594242728822 9.902503624999996 0 0 0
213 1 5.6585735 23.83429539404 5.6585735 0 0 0
214 1 7.073216875 25.248937423841 7.073216875 0 0 0
215 1 5.6585735 23.83429539404 8.48786025 0 0 0
216 1 7.073216875 25.248937423841 9.902503625 0 0 0
278 1 9.90250362499999 22.30759424272884 7.073216875 0 0 0
280 1 9.902503625000001 22.30759424272883 9.902503625000005 0 0 0
285 1 8.48786025 23.83429539404 5.6585735 0 0 0
286 1 9.902503625 25.248937423841 7.073216875 0 0 0
287 1 8.48786025 23.83429539404 8.48786025 0 0 0
288 1 9.902503625 25.248937423841 9.902503625 0 0 0

Velocities

1 0 0 0
2 0 0 0
3 0 0 0
4 0 0 0
9 0 0 0
10 0 0 0
11 0 0 0
12 0 0 0
73 0 0 0
74 0 0 0
75 0 0 0
76 0 0 0
81 0 0 0
82 0 0 0
83 0 0 0
84 0 0 0
145 0 0 0
146 0 0 0
147 0 0 0
148 0 0 0
153 0 0 0
154 0 0 0
155 0 0 0
156 0 0 0
217 0 0 0
218 0 0 0
219 0 0 0
220 0 0 0
225 0 0 0
226 0 0 0
227 0 0 0
228 0 0 0
17 0 0 0
18 0 0 0
19 0 0 0
20 0 0 0
25 0 0 0
27 0 0 0
89 0 0 0
90 0 0 0
91 0 0 0
92 0 0 0
97 0 0 0
99 0 0 0
161 0 0 0
162 0 0 0
163 0 0 0
164 0 0 0
169 0 0 0
171 0 0 0
233 0 0 0
234 0 0 0
235 0 0 0
236 0 0 0
241 0 0 0
243 0 0 0
26 0 0 0
28 0 0 0
33 0 0 0
34 0 0 0
35 0 0 0
36 0 0 0
98 0 0 0
100 0 0 0
105 0 0 0
106 0 0 0
107 0 0 0
108 0 0 0
170 0 0 0
172 0 0 0
177 0 0 0
178 0 0 0
179 0 0 0
180 0 0 0
242 0 0 0
244 0 0 0
249 0 0 0
250 0 0 0
251 0 0 0
252 0 0 0
41 0 0 0
42 0 0 0
43 0 0 0
44 0 0 0
113 0 0 0
114 0 0 0
115 0 0 0
116 0 0 0
185 0 0 0
186 0 0 0
187 0 0 0
188 0 0 0
257 0 0 0
258 0 0 0
259 0 0 0
260 0 0 0
49 0 0 0
50 0 0 0
51 0 0 0
52 0 0 0
57 0 0 0
59 0 0 0
121 0 0 0
122 0 0 0
123 0 0 0
124 0 0 0
129 0 0 0
131 0 0 0
193 0 0 0
194 0 0 0
195 0 0 0
196 0 0 0
201 0 0 0
203 0 0 0
265 0 0 0
266 0 0 0
267 0 0 0
268 0 0 0
273 0 0 0
275 0 0 0
58 0 0 0
60 0 0 0
65 0 0 0
66 0 0 0
67 0 0 0
68 0 0 0
130 0 0 0
132 0 0 0
137 0 0 0
138 0 0 0
139 0 0 0
140 0 0 0
202 0 0 0
204 0 0 0
209 0 0 0
210 0 0 0
211 0 0 0
212 0 0 0
274 0 0 0
276 0 0 0
281 0 0 0
282 0 0 0
283 0 0 0
284 0 0 0
5 0 0 0
6 0 0 0
7 0 0 0
8 0 0 0
13 0 0 0
14 0 0 0
15 0 0 0
16 0 0 0
77 0 0 0
78 0 0 0
79 0 0 0
80 0 0 0
85 0 0 0
86 0 0 0
87 0 0 0
88 0 0 0
149 0 0 0
150 0 0 0
151 0 0 0
152 0 0 0
157 0 0 0
158 0 0 0
159 0 0 0
160 0 0 0
221 0 0 0
222 0 0 0
223 0 0 0
224 0 0 0
229 0 0 0
230 0 0 0
231 0 0 0
232 0 0 0
21 0 0 0
22 0 0 0
23 0 0 0
24 0 0 0
29 0 0 0
31 0 0 0
93 0 0 0
94 0 0 0
95 0 0 0
96 0 0 0
101 0 0 0
103 0 0 0
165 0 0 0
166 0 0 0
167 0 0 0
168 0 0 0
173 0 0 0
175 0 0 0
237 0 0 0
238 0 0 0
239 0 0 0
240 0 0 0
245 0 0 0
247 0 0 0
30 0 0 0
32 0 0 0
37 0 0 0
38 0 0 0
39 0 0 0
40 0 0 0
102 0 0 0
104 0 0 0
109 0 0 0
110 0 0 0
111 0 0 0
112 0 0 0
174 0 0 0
176 0 0 0
181 0 0 0
182 0 0 0
183 0 0 0
184 0 0 0
246 0 0 0
248 0 0 0
253 0 0 0
254 0 0 0
255 0 0 0
256 0 0 0
45 0 0 0
46 0 0 0
47 0 0 0
48 0 0 0
117 0 0 0
118 0 0 0
119 0 0 0
120 0 0 0
189 0 0 0
190 0 0 0
191 0 0 0
192 0 0 0
261 0 0 0
262 0 0 0
263 0 0 0
264 0 0 0
53 0 0 0
54 0 0 0
55 0 0 0
56 0 0 0
61 0 0 0
63 0 0 0
125 0 0 0
126 0 0 0
127 0 0 0
128 0 0 0
133 0 0 0
135 0 0 0
197 0 0 0
198 0 0 0
199 0 0 0
200 0 0 0
205 0 0 0
207 0 0 0
269 0 0 0
270 0 0 0
271 0 0 0
272 0 0 0
277 0 0 0
279 0 0 0
62 0 0 0
64 0 0 0
69 0 0 0
70 0 0 0
71 0 0 0
72 0 0 0
134 0 0 0
136 0 0 0
141 0 0 0
142 0 0 0
143 0 0 0
144 0 0 0
206 0 0 0
208 0 0 0
213 0 0 0
214 0 0 0
215 0 0 0
216 0 0 0
278 0 0 0
280 0 0 0
285 0 0 0
286 0 0 0
287 0 0 0
288 0 0 0
