LAMMPS data file via write_data, version 29 Aug 2024, timestep = 14, units = metal

288 atoms
1 atom types

0 11.317147 xlo xhi
0 26.563582 ylo yhi
0 11.317147 zlo zhi

Masses

1 55.8

Atoms # atomic

1 1 0 0 0 0 0 0
2 1 1.414643375 1.414643557616 1.414643375 0 0 0
3 1 0 0 2.82928675 0 0 0
4 1 1.414643375 1.414643557616 4.243930125 0 0 0
9 1 0 2.82928660596 0 0 0 0
10 1 1.4146433750000105 4.324588891479928 1.4146433750000273 0 0 0
11 1 0 2.82928660596 2.82928675 0 0 0
12 1 1.4146433749999918 4.32458889147992 4.243930124999969 0 0 0
73 1 2.82928675 0 0 0 0 0
74 1 4.243930125 1.414643557616 1.414643375 0 0 0
75 1 2.82928675 0 2.82928675 0 0 0
76 1 4.243930125 1.414643557616 4.243930125 0 0 0
81 1 2.82928675 2.82928660596 0 0 0 0
82 1 4.243930125000002 4.324588891479933 1.4146433749999907 0 0 0
83 1 2.82928675 2.82928660596 2.82928675 0 0 0
84 1 4.243930125000001 4.32458889147994 4.243930125000013 0 0 0
145 1 5.6585735 0 0 0 0 0
146 1 7.073216875 1.414643557616 1.414643375 0 0 0
147 1 5.6585735 0 2.82928675 0 0 0
148 1 7.073216875 1.414643557616 4.243930125 0 0 0
153 1 5.6585735 2.82928660596 0 0 0 0
154 1 7.073216875000005 4.324588891479932 1.4146433750000054 0 0 0
155 1 5.6585735 2.82928660596 2.82928675 0 0 0
156 1 7.073216875000002 4.324588891479915 4.243930125000001 0 0 0
217 1 8.48786025 0 0 0 0 0
218 1 9.902503625 1.414643557616 1.414643375 0 0 0
219 1 8.48786025 0 2.82928675 0 0 0
220 1 9.902503625 1.414643557616 4.243930125 0 0 0
225 1 8.48786025 2.82928660596 0 0 0 0
226 1 9.902503624999984 4.3245888914799195 1.4146433750000016 0 0 0
227 1 8.48786025 2.82928660596 2.82928675 0 0 0
228 1 9.902503625000016 4.324588891479919 4.243930125000026 0 0 0
17 1 11.317146999999999 5.812521149315395 5.923486090553438e-15 -1 0 0
18 1 1.414643375 7.306783287598867 1.414643375000017 0 0 0
19 1 2.936360833160783e-14 5.812521149315383 2.829286750000017 0 0 0
20 1 1.4146433749999971 7.306783287598881 4.243930124999951 0 0 0
25 1 11.317146999999997 8.799566291118465 11.317146999999984 -1 0 -1
27 1 2.2118289031568342e-14 8.799566291118444 2.8292867500000347 0 0 0
89 1 2.8292867500000174 5.8125211493153826 1.5002140931775887e-14 0 0 0
90 1 4.243930125000009 7.306783287598871 1.4146433749999618 0 0 0
91 1 2.829286749999971 5.8125211493153675 2.829286750000007 0 0 0
92 1 4.243930125000024 7.306783287598886 4.243930125000024 0 0 0
97 1 2.8292867500000285 8.799566291118452 11.31714699999998 0 0 -1
99 1 2.82928674999997 8.799566291118454 2.8292867500000245 0 0 0
161 1 5.6585734999999815 5.812521149315393 1.3604791539793336e-14 0 0 0
162 1 7.073216875000025 7.3067832875988685 1.4146433749999936 0 0 0
163 1 5.6585735 5.812521149315378 2.829286750000003 0 0 0
164 1 7.073216874999966 7.306783287598889 4.2439301249999986 0 0 0
169 1 5.658573499999974 8.799566291118438 11.317146999999963 0 0 -1
171 1 5.658573500000008 8.799566291118436 2.8292867500000525 0 0 0
233 1 8.487860250000006 5.812521149315388 3.640339618158844e-14 0 0 0
234 1 9.902503624999968 7.306783287598869 1.4146433749999847 0 0 0
235 1 8.487860249999992 5.812521149315395 2.8292867499999708 0 0 0
236 1 9.902503625000012 7.30678328759888 4.243930125000027 0 0 0
241 1 8.48786025 8.799566291118442 4.695579833775506e-14 0 0 0
243 1 8.487860249999986 8.799566291118456 2.829286749999972 0 0 0
26 1 1.4146433750000103 10.291208649978826 1.4146433750000098 0 0 0
28 1 1.4146433749999914 10.291208649978794 4.24393012499997 0 0 0
33 1 11.317146999999993 11.779652205301156 2.8601225714083052e-15 -1 0 0
34 1 1.4146433750000342 13.267842701700145 1.414643375000003 0 0 0
35 1 9.32895394254187e-15 11.77965220530114 2.8292867499999863 0 0 0
36 1 1.4146433750000058 13.267842701700172 4.243930124999994 0 0 0
98 1 4.243930124999979 10.291208649978831 1.4146433749999554 0 0 0
100 1 4.243930125000009 10.2912086499788 4.243930125000025 0 0 0
105 1 2.829286750000031 11.779652205301153 1.4865348752528183e-14 0 0 0
106 1 4.243930124999956 13.267842701700143 1.4146433749999783 0 0 0
107 1 2.8292867499999934 11.779652205301165 2.829286749999975 0 0 0
108 1 4.243930125000001 13.267842701700157 4.243930125000017 0 0 0
170 1 7.0732168750000515 10.291208649978833 1.4146433750000158 0 0 0
172 1 7.07321687499999 10.291208649978817 4.243930124999978 0 0 0
177 1 5.658573499999975 11.779652205301144 11.317146999999986 0 0 -1
178 1 7.073216875000036 13.267842701700141 1.414643374999998 0 0 0
179 1 5.65857350000001 11.779652205301142 2.8292867500000174 0 0 0
180 1 7.073216875000004 13.267842701700168 4.243930125000001 0 0 0
242 1 9.902503624999962 10.291208649978827 1.4146433749999818 0 0 0
244 1 9.902503625000005 10.291208649978808 4.243930125000024 0 0 0
249 1 8.487860249999995 11.779652205301145 5.920673744970222e-14 0 0 0
250 1 9.90250362499998 13.267842701700154 1.4146433749999836 0 0 0
251 1 8.487860249999976 11.779652205301133 2.8292867499999654 0 0 0
252 1 9.90250362499999 13.267842701700179 4.243930125000024 0 0 0
41 1 11.317146999999977 14.759481074970896 11.317146999999984 -1 0 -1
42 1 1.4146433750000003 16.251088770927048 1.4146433750000196 0 0 0
43 1 1.9121416047791786e-15 14.759481074970914 2.8292867500000085 0 0 0
44 1 1.414643375000005 16.25108877092704 4.243930124999989 0 0 0
113 1 2.8292867500000134 14.759481074970882 1.8229333835001494e-15 0 0 0
114 1 4.24393012500001 16.251088770927044 1.4146433749999614 0 0 0
115 1 2.8292867499999783 14.759481074970891 2.829286750000006 0 0 0
116 1 4.243930125000012 16.251088770927026 4.243930125000025 0 0 0
185 1 5.6585734999999975 14.759481074970916 11.317146999999988 0 0 -1
186 1 7.073216874999979 16.251088770927055 1.414643374999973 0 0 0
187 1 5.6585735 14.759481074970903 2.8292867500000343 0 0 0
188 1 7.073216874999985 16.25108877092704 4.243930125000007 0 0 0
257 1 8.487860250000002 14.759481074970893 2.9809287498655153e-15 0 0 0
258 1 9.902503625000021 16.251088770927048 1.414643374999993 0 0 0
259 1 8.48786025 14.759481074970882 2.8292867500000174 0 0 0
260 1 9.902503625000007 16.251088770927037 4.243930124999997 0 0 0
49 1 11.31714699999998 17.744912622441007 1.2302324604713923e-15 -1 0 0
50 1 1.4146433750000027 19.239090677565436 1.4146433750000396 0 0 0
51 1 11.317146999999999 17.744912622441035 2.829286749999992 -1 0 0
52 1 1.4146433750000003 19.239090677565436 4.2439301249999755 0 0 0
57 1 11.317146999999984 20.73176189284364 11.317146999999993 -1 0 -1
59 1 11.317146999999983 20.731761892843625 2.829286749999985 -1 0 0
121 1 2.829286750000003 17.744912622441003 11.317146999999984 0 0 -1
122 1 4.24393012500001 19.239090677565454 1.414643375000008 0 0 0
123 1 2.829286749999964 17.744912622441024 2.8292867499999947 0 0 0
124 1 4.243930124999988 19.239090677565454 4.2439301250000065 0 0 0
129 1 2.8292867500000165 20.73176189284364 11.317146999999997 0 0 -1
131 1 2.829286749999995 20.731761892843622 2.8292867500000014 0 0 0
193 1 5.658573500000014 17.744912622440992 1.759218488873806e-14 0 0 0
194 1 7.073216874999987 19.23909067756543 1.4146433750000338 0 0 0
195 1 5.658573500000031 17.744912622441035 2.8292867499999876 0 0 0
196 1 7.07321687499999 19.239090677565436 4.243930124999977 0 0 0
201 1 5.658573499999977 20.73176189284364 2.0560170986917743e-14 0 0 0
203 1 5.658573500000009 20.731761892843625 2.829286749999975 0 0 0
265 1 8.487860249999999 17.744912622441007 11.317146999999993 0 0 -1
266 1 9.902503625000008 19.23909067756545 1.4146433750000336 0 0 0
267 1 8.48786025000001 17.744912622441042 2.8292867500000027 0 0 0
268 1 9.902503625000008 19.239090677565443 4.243930124999969 0 0 0
273 1 8.487860250000018 20.73176189284365 9.451429205367193e-16 0 0 0
275 1 8.487860250000013 20.731761892843632 2.829286749999986 0 0 0
58 1 1.4146433750000003 22.21486676093632 1.41464337500001 0 0 0
60 1 1.414643375000002 22.21486676093633 4.243930125000001 0 0 0
65 1 0 23.73429539404 0 0 0 0
66 1 1.414643375 25.148937423841 1.414643375 0 0 0
67 1 0 23.73429539404 2.82928675 0 0 0
68 1 1.414643375 25.148937423841 4.243930125 0 0 0
130 1 4.2439301250000065 22.214866760936317 1.4146433749999867 0 0 0
132 1 4.243930124999995 22.214866760936324 4.243930125000006 0 0 0
137 1 2.82928675 23.73429539404 0 0 0 0
138 1 4.243930125 25.148937423841 1.414643375 0 0 0
139 1 2.82928675 23.73429539404 2.82928675 0 0 0
140 1 4.243930125 25.148937423841 4.243930125 0 0 0
202 1 7.073216874999996 22.214866760936314 1.4146433750000131 0 0 0
204 1 7.073216875000005 22.214866760936324 4.2439301249999986 0 0 0
209 1 5.6585735 23.73429539404 0 0 0 0
210 1 7.073216875 25.148937423841 1.414643375 0 0 0
211 1 5.6585735 23.73429539404 2.82928675 0 0 0
212 1 7.073216875 25.148937423841 4.243930125 0 0 0
274 1 9.902503625000008 22.2148667609363 1.4146433750000051 0 0 0
276 1 9.90250362500001 22.214866760936296 4.243930125000007 0 0 0
281 1 8.48786025 23.73429539404 0 0 0 0
282 1 9.902503625 25.148937423841 1.414643375 0 0 0
283 1 8.48786025 23.73429539404 2.82928675 0 0 0
284 1 9.902503625 25.148937423841 4.243930125 0 0 0
5 1 0 0 5.6585735 0 0 0
6 1 1.414643375 1.414643557616 7.073216875 0 0 0
7 1 0 0 8.48786025 0 0 0
8 1 1.414643375 1.414643557616 9.902503625 0 0 0
13 1 0 2.82928660596 5.6585735 0 0 0
14 1 1.4146433750000118 4.324588891479926 7.073216875000039 0 0 0
15 1 0 2.82928660596 8.48786025 0 0 0
16 1 1.4146433749999896 4.32458889147992 9.902503624999964 0 0 0
77 1 2.82928675 0 5.6585735 0 0 0
78 1 4.243930125 1.414643557616 7.073216875 0 0 0
79 1 2.82928675 0 8.48786025 0 0 0
80 1 4.243930125 1.414643557616 9.902503625 0 0 0
85 1 2.82928675 2.82928660596 5.6585735 0 0 0
86 1 4.243930124999991 4.3245888914799275 7.073216874999997 0 0 0
87 1 2.82928675 2.82928660596 8.48786025 0 0 0
88 1 4.243930125000012 4.3245888914799115 9.902503625000028 0 0 0
149 1 5.6585735 0 5.6585735 0 0 0
150 1 7.073216875 1.414643557616 7.073216875 0 0 0
151 1 5.6585735 0 8.48786025 0 0 0
152 1 7.073216875 1.414643557616 9.902503625 0 0 0
157 1 5.6585735 2.82928660596 5.6585735 0 0 0
158 1 7.073216874999996 4.324588891479936 7.073216875000036 0 0 0
159 1 5.6585735 2.82928660596 8.48786025 0 0 0
160 1 7.073216874999991 4.3245888914799275 9.902503624999973 0 0 0
221 1 8.48786025 0 5.6585735 0 0 0
222 1 9.902503625 1.414643557616 7.073216875 0 0 0
223 1 8.48786025 0 8.48786025 0 0 0
224 1 9.902503625 1.414643557616 9.902503625 0 0 0
229 1 8.48786025 2.82928660596 5.6585735 0 0 0
230 1 9.902503624999994 4.32458889147993 7.07321687499999 0 0 0
231 1 8.48786025 2.82928660596 8.48786025 0 0 0
232 1 9.902503625000001 4.324588891479914 9.902503624999985 0 0 0
21 1 11.317146999999965 5.812521149315363 5.65857349999997 -1 0 0
22 1 1.414643375000032 7.306783287598873 7.073216875000065 0 0 0
23 1 3.1904124148920686e-14 5.812521149315381 8.487860250000015 0 0 0
24 1 1.4146433749999934 7.306783287598878 9.902503624999976 0 0 0
29 1 11.31714699999996 8.799566291118465 5.658573499999966 -1 0 0
31 1 4.033559523970892e-15 8.799566291118444 8.487860250000022 0 0 0
93 1 2.8292867500000267 5.812521149315382 5.658573499999997 0 0 0
94 1 4.243930124999982 7.306783287598866 7.073216874999976 0 0 0
95 1 2.8292867499999517 5.812521149315384 8.487860249999969 0 0 0
96 1 4.243930125000022 7.306783287598893 9.902503625000039 0 0 0
101 1 2.829286750000047 8.799566291118454 5.658573499999994 0 0 0
103 1 2.8292867499999788 8.79956629111844 8.487860250000002 0 0 0
165 1 5.658573499999981 5.812521149315385 5.658573499999984 0 0 0
166 1 7.073216875000027 7.306783287598866 7.073216875000044 0 0 0
167 1 5.658573500000046 5.812521149315384 8.487860249999995 0 0 0
168 1 7.073216874999975 7.306783287598873 9.902503624999976 0 0 0
173 1 5.658573499999967 8.799566291118438 5.658573499999948 0 0 0
175 1 5.658573500000027 8.79956629111845 8.487860250000042 0 0 0
237 1 8.487860250000026 5.812521149315384 5.658573500000005 0 0 0
238 1 9.902503624999964 7.3067832875988845 7.073216875000009 0 0 0
239 1 8.487860249999981 5.812521149315388 8.487860249999986 0 0 0
240 1 9.902503625000003 7.30678328759888 9.902503624999987 0 0 0
245 1 8.487860250000022 8.799566291118445 5.658573499999998 0 0 0
247 1 8.487860249999995 8.799566291118431 8.487860249999985 0 0 0
30 1 1.4146433750000014 10.291208649978831 7.073216875000013 0 0 0
32 1 1.414643374999984 10.291208649978797 9.902503625000008 0 0 0
37 1 11.31714699999998 11.779652205301167 5.6585735000000295 -1 0 0
38 1 1.414643374999987 13.267842701700141 7.07321687500001 0 0 0
39 1 4.613855822404952e-15 11.77965220530116 8.48786024999998 0 0 0
40 1 1.4146433749999956 13.267842701700163 9.902503625 0 0 0
102 1 4.243930124999969 10.291208649978826 7.073216874999986 0 0 0
104 1 4.243930125000002 10.291208649978817 9.902503625000046 0 0 0
109 1 2.8292867500000276 11.779652205301154 5.658573500000033 0 0 0
110 1 4.24393012499999 13.267842701700136 7.073216874999989 0 0 0
111 1 2.8292867500000143 11.779652205301165 8.487860249999969 0 0 0
112 1 4.243930125000003 13.267842701700141 9.902503625000017 0 0 0
174 1 7.073216875000023 10.291208649978831 7.073216875000025 0 0 0
176 1 7.073216874999972 10.291208649978813 9.902503624999982 0 0 0
181 1 5.65857349999999 11.779652205301161 5.658573499999984 0 0 0
182 1 7.073216874999997 13.267842701700141 7.073216875000015 0 0 0
183 1 5.658573500000011 11.779652205301163 8.487860249999995 0 0 0
184 1 7.073216874999979 13.267842701700166 9.902503624999978 0 0 0
246 1 9.902503625000001 10.29120864997882 7.073216874999985 0 0 0
248 1 9.902503625000035 10.291208649978799 9.902503625000001 0 0 0
253 1 8.487860250000006 11.779652205301144 5.658573500000019 0 0 0
254 1 9.902503625000028 13.267842701700152 7.073216874999972 0 0 0
255 1 8.487860249999962 11.779652205301147 8.487860249999963 0 0 0
256 1 9.902503625000032 13.26784270170017 9.902503625000012 0 0 0
45 1 11.31714699999999 14.75948107497088 5.658573500000002 -1 0 0
46 1 1.4146433749999827 16.251088770927055 7.073216875000003 0 0 0
47 1 9.406438605284802e-15 14.759481074970886 8.487860249999986 0 0 0
48 1 1.4146433750000083 16.251088770927044 9.902503625000003 0 0 0
117 1 2.8292867500000187 14.759481074970887 5.658573499999987 0 0 0
118 1 4.2439301249999986 16.25108877092705 7.073216874999986 0 0 0
119 1 2.829286749999992 14.759481074970887 8.48786025 0 0 0
120 1 4.243930124999997 16.25108877092704 9.902503625000024 0 0 0
189 1 5.658573499999998 14.7594810749709 5.65857349999998 0 0 0
190 1 7.073216874999985 16.25108877092705 7.0732168749999955 0 0 0
191 1 5.658573500000029 14.75948107497089 8.48786025000001 0 0 0
192 1 7.0732168749999795 16.25108877092705 9.902503625000005 0 0 0
261 1 8.487860250000004 14.759481074970877 5.65857349999998 0 0 0
262 1 9.90250362500003 16.25108877092705 7.073216874999992 0 0 0
263 1 8.487860249999974 14.759481074970884 8.487860250000004 0 0 0
264 1 9.902503625000016 16.251088770927055 9.902503625000017 0 0 0
53 1 9.186030025479739e-15 17.744912622441017 5.658573500000011 0 0 0
54 1 1.4146433749999883 19.23909067756543 7.073216875000011 0 0 0
55 1 11.317146999999999 17.744912622441024 8.487860249999988 -1 0 0
56 1 1.4146433750000178 19.23909067756544 9.902503624999989 0 0 0
61 1 11.317146999999979 20.731761892843643 5.658573500000017 -1 0 0
63 1 11.317146999999983 20.731761892843622 8.48786025 -1 0 0
125 1 2.829286750000001 17.74491262244101 5.658573500000006 0 0 0
126 1 4.243930124999998 19.239090677565454 7.0732168749999955 0 0 0
127 1 2.82928674999999 17.74491262244103 8.487860250000008 0 0 0
128 1 4.243930124999974 19.239090677565446 9.902503624999992 0 0 0
133 1 2.829286750000033 20.731761892843625 5.658573500000001 0 0 0
135 1 2.8292867500000223 20.73176189284362 8.487860250000017 0 0 0
197 1 5.658573500000007 17.744912622440996 5.658573500000002 0 0 0
198 1 7.073216875000008 19.23909067756543 7.073216875000018 0 0 0
199 1 5.658573500000024 17.744912622441014 8.487860249999997 0 0 0
200 1 7.073216875000012 19.23909067756542 9.902503624999982 0 0 0
205 1 5.658573499999978 20.731761892843636 5.658573500000017 0 0 0
207 1 5.658573499999985 20.731761892843632 8.487860249999985 0 0 0
269 1 8.487860249999988 17.744912622441017 5.658573500000008 0 0 0
270 1 9.902503625000012 19.239090677565457 7.073216875 0 0 0
271 1 8.48786024999998 17.744912622441035 8.487860250000011 0 0 0
272 1 9.902503625000012 19.239090677565446 9.902503624999987 0 0 0
277 1 8.487860250000022 20.73176189284365 5.6585735000000135 0 0 0
279 1 8.487860250000013 20.731761892843636 8.487860249999994 0 0 0
62 1 1.4146433749999876 22.214866760936342 7.073216874999991 0 0 0
64 1 1.4146433749999971 22.214866760936324 9.90250362499999 0 0 0
69 1 0 23.73429539404 5.6585735 0 0 0
70 1 1.414643375 25.148937423841 7.073216875 0 0 0
71 1 0 23.73429539404 8.48786025 0 0 0
72 1 1.414643375 25.148937423841 9.902503625 0 0 0
134 1 4.243930125000004 22.21486676093631 7.073216874999997 0 0 0
136 1 4.243930124999988 22.214866760936317 9.902503625000012 0 0 0
141 1 2.82928675 23.73429539404 5.6585735 0 0 0
142 1 4.243930125 25.148937423841 7.073216875 0 0 0
143 1 2.82928675 23.73429539404 8.48786025 0 0 0
144 1 4.243930125 25.148937423841 9.902503625 0 0 0
206 1 7.073216875000007 22.214866760936324 7.073216874999997 0 0 0
208 1 7.07321687500002 22.214866760936324 9.90250362499999 0 0 0
213 1 5.6585735 23.73429539404 5.6585735 0 0 0
214 1 7.073216875 25.148937423841 7.073216875 0 0 0
215 1 5.6585735 23.73429539404 8.48786025 0 0 0
216 1 7.073216875 25.148937423841 9.902503625 0 0 0
278 1 9.90250362499999 22.214866760936303 7.073216874999992 0 0 0
280 1 9.902503624999994 22.214866760936314 9.902503625 0 0 0
285 1 8.48786025 23.73429539404 5.6585735 0 0 0
286 1 9.902503625 25.148937423841 7.073216875 0 0 0
287 1 8.48786025 23.73429539404 8.48786025 0 0 0
288 1 9.902503625 25.148937423841 9.902503625 0 0 0

Velocities

1 0 0 0
2 0 0 0
3 0 0 0
4 0 0 0
9 0 0 0
10 0 0 0
11 0 0 0
12 0 0 0
73 0 0 0
74 0 0 0
75 0 0 0
76 0 0 0
81 0 0 0
82 0 0 0
83 0 0 0
84 0 0 0
145 0 0 0
146 0 0 0
147 0 0 0
148 0 0 0
153 0 0 0
154 0 0 0
155 0 0 0
156 0 0 0
217 0 0 0
218 0 0 0
219 0 0 0
220 0 0 0
225 0 0 0
226 0 0 0
227 0 0 0
228 0 0 0
17 0 0 0
18 0 0 0
19 0 0 0
20 0 0 0
25 0 0 0
27 0 0 0
89 0 0 0
90 0 0 0
91 0 0 0
92 0 0 0
97 0 0 0
99 0 0 0
161 0 0 0
162 0 0 0
163 0 0 0
164 0 0 0
169 0 0 0
171 0 0 0
233 0 0 0
234 0 0 0
235 0 0 0
236 0 0 0
241 0 0 0
243 0 0 0
26 0 0 0
28 0 0 0
33 0 0 0
34 0 0 0
35 0 0 0
36 0 0 0
98 0 0 0
100 0 0 0
105 0 0 0
106 0 0 0
107 0 0 0
108 0 0 0
170 0 0 0
172 0 0 0
177 0 0 0
178 0 0 0
179 0 0 0
180 0 0 0
242 0 0 0
244 0 0 0
249 0 0 0
250 0 0 0
251 0 0 0
252 0 0 0
41 0 0 0
42 0 0 0
43 0 0 0
44 0 0 0
113 0 0 0
114 0 0 0
115 0 0 0
116 0 0 0
185 0 0 0
186 0 0 0
187 0 0 0
188 0 0 0
257 0 0 0
258 0 0 0
259 0 0 0
260 0 0 0
49 0 0 0
50 0 0 0
51 0 0 0
52 0 0 0
57 0 0 0
59 0 0 0
121 0 0 0
122 0 0 0
123 0 0 0
124 0 0 0
129 0 0 0
131 0 0 0
193 0 0 0
194 0 0 0
195 0 0 0
196 0 0 0
201 0 0 0
203 0 0 0
265 0 0 0
266 0 0 0
267 0 0 0
268 0 0 0
273 0 0 0
275 0 0 0
58 0 0 0
60 0 0 0
65 0 0 0
66 0 0 0
67 0 0 0
68 0 0 0
130 0 0 0
132 0 0 0
137 0 0 0
138 0 0 0
139 0 0 0
140 0 0 0
202 0 0 0
204 0 0 0
209 0 0 0
210 0 0 0
211 0 0 0
212 0 0 0
274 0 0 0
276 0 0 0
281 0 0 0
282 0 0 0
283 0 0 0
284 0 0 0
5 0 0 0
6 0 0 0
7 0 0 0
8 0 0 0
13 0 0 0
14 0 0 0
15 0 0 0
16 0 0 0
77 0 0 0
78 0 0 0
79 0 0 0
80 0 0 0
85 0 0 0
86 0 0 0
87 0 0 0
88 0 0 0
149 0 0 0
150 0 0 0
151 0 0 0
152 0 0 0
157 0 0 0
158 0 0 0
159 0 0 0
160 0 0 0
221 0 0 0
222 0 0 0
223 0 0 0
224 0 0 0
229 0 0 0
230 0 0 0
231 0 0 0
232 0 0 0
21 0 0 0
22 0 0 0
23 0 0 0
24 0 0 0
29 0 0 0
31 0 0 0
93 0 0 0
94 0 0 0
95 0 0 0
96 0 0 0
101 0 0 0
103 0 0 0
165 0 0 0
166 0 0 0
167 0 0 0
168 0 0 0
173 0 0 0
175 0 0 0
237 0 0 0
238 0 0 0
239 0 0 0
240 0 0 0
245 0 0 0
247 0 0 0
30 0 0 0
32 0 0 0
37 0 0 0
38 0 0 0
39 0 0 0
40 0 0 0
102 0 0 0
104 0 0 0
109 0 0 0
110 0 0 0
111 0 0 0
112 0 0 0
174 0 0 0
176 0 0 0
181 0 0 0
182 0 0 0
183 0 0 0
184 0 0 0
246 0 0 0
248 0 0 0
253 0 0 0
254 0 0 0
255 0 0 0
256 0 0 0
45 0 0 0
46 0 0 0
47 0 0 0
48 0 0 0
117 0 0 0
118 0 0 0
119 0 0 0
120 0 0 0
189 0 0 0
190 0 0 0
191 0 0 0
192 0 0 0
261 0 0 0
262 0 0 0
263 0 0 0
264 0 0 0
53 0 0 0
54 0 0 0
55 0 0 0
56 0 0 0
61 0 0 0
63 0 0 0
125 0 0 0
126 0 0 0
127 0 0 0
128 0 0 0
133 0 0 0
135 0 0 0
197 0 0 0
198 0 0 0
199 0 0 0
200 0 0 0
205 0 0 0
207 0 0 0
269 0 0 0
270 0 0 0
271 0 0 0
272 0 0 0
277 0 0 0
279 0 0 0
62 0 0 0
64 0 0 0
69 0 0 0
70 0 0 0
71 0 0 0
72 0 0 0
134 0 0 0
136 0 0 0
141 0 0 0
142 0 0 0
143 0 0 0
144 0 0 0
206 0 0 0
208 0 0 0
213 0 0 0
214 0 0 0
215 0 0 0
216 0 0 0
278 0 0 0
280 0 0 0
285 0 0 0
286 0 0 0
287 0 0 0
288 0 0 0
