 # File generated with Atomsk by user on 2025-02-06 12:34:47
  
       23493  atoms
           2  atom types
 
      0.000000000000     132.021885000000  xlo xhi
      0.000000000000     134.762886000000  ylo yhi
      0.000000000000      27.721236000000  zlo zhi
 
Masses
 
            1   55.84500000             # Fe
            2   1.00800000              # H
 
Atoms # atomic
 
         1    1       32.646078135121       0.414276696558       4.043703957504
         2    1       30.645470058405       2.047765937970       5.198753609421
         3    1       30.645470058405       0.414276696558       0.578549457504
         4    1       32.646078135121       2.047765937970       1.733601049908
         5    1       32.646078135121       1.231021991078       6.353806033463
         6    1       30.645470058405       1.231021991078       2.888652919524
         7    1       32.646078135121       0.414276696558      10.974012957504
         8    1       30.645470058405       2.047765937970      12.129065381545
         9    1       30.645470058405       0.414276696558       7.508858457504
        10    1       32.646078135121       2.047765937970       8.663910881545
        11    1       32.646078135121       1.231021991078      13.284115033463
        12    1       30.645470058405       1.231021991078       9.818960533463
        13    1       32.646078135121       2.864511232490       4.043703957504
        14    1       30.645470058405       4.498000473902       5.198753609421
        15    1       30.645470058405       2.864511232490       0.578549457504
        16    1       32.646078135121       4.498000473902       1.733601049908
        17    1       32.646078135121       3.681255179382       6.353806033463
        18    1       30.645470058405       3.681255179382       2.888652919524
        19    1       32.646078135121       2.864511232490      10.974012957504
        20    1       30.645470058405       4.498000473902      12.129065381545
        21    1       30.645470058405       2.864511232490       7.508858457504
        22    1       32.646078135121       4.498000473902       8.663910881545
        23    1       32.646078135121       3.681255179382      13.284115033463
        24    1       30.645470058405       3.681255179382       9.818960533463
        25    1       32.646078135121       5.314745768423       4.043703957504
        26    1       30.645470058405       6.948235009835       5.198753609421
        27    1       30.645470058405       5.314745768423       0.578549457504
        28    1       32.646078135121       6.948235009835       1.733601049908
        29    1       32.646078135121       6.131489715314       6.353806033463
        30    1       30.645470058405       6.131489715314       2.888652919524
        31    1       32.646078135121       5.314745768423      10.974012957504
        32    1       30.645470058405       6.948235009835      12.129065381545
        33    1       30.645470058405       5.314745768423       7.508858457504
        34    1       32.646078135121       6.948235009835       8.663910881545
        35    1       32.646078135121       6.131489715314      13.284115033463
        36    1       30.645470058405       6.131489715314       9.818960533463
        37    1       32.646078135121       7.764978956727       4.043703957504
        38    1       30.645470058405       9.398469545767       5.198753609421
        39    1       30.645470058405       7.764978956727       0.578549457504
        40    1       32.646078135121       9.398469545767       1.733601049908
        41    1       32.646078135121       8.581724251247       6.353806033463
        42    1       30.645470058405       8.581724251247       2.888652919524
        43    1       32.646078135121       7.764978956727      10.974012957504
        44    1       30.645470058405       9.398469545767      12.129065381545
        45    1       30.645470058405       7.764978956727       7.508858457504
        46    1       32.646078135121       9.398469545767       8.663910881545
        47    1       32.646078135121       8.581724251247      13.284115033463
        48    1       30.645470058405       8.581724251247       9.818960533463
        49    1       32.646078135121      10.215213492659       4.043703957504
        50    1       30.645470058405      11.848702734071       5.198753609421
        51    1       30.645470058405      10.215213492659       0.578549457504
        52    1       32.646078135121      11.848702734071       1.733601049908
        53    1       32.646078135121      11.031958787180       6.353806033463
        54    1       30.645470058405      11.031958787180       2.888652919524
        55    1       32.646078135121      10.215213492659      10.974012957504
        56    1       30.645470058405      11.848702734071      12.129065381545
        57    1       30.645470058405      10.215213492659       7.508858457504
        58    1       32.646078135121      11.848702734071       8.663910881545
        59    1       32.646078135121      11.031958787180      13.284115033463
        60    1       30.645470058405      11.031958787180       9.818960533463
        61    1       32.646078135121      12.665448028592       4.043703957504
        62    1       30.645470058405      14.298937270004       5.198753609421
        63    1       30.645470058405      12.665448028592       0.578549457504
        64    1       32.646078135121      14.298937270004       1.733601049908
        65    1       32.646078135121      13.482193323112       6.353806033463
        66    1       30.645470058405      13.482193323112       2.888652919524
        67    1       32.646078135121      12.665448028592      10.974012957504
        68    1       30.645470058405      14.298937270004      12.129065381545
        69    1       30.645470058405      12.665448028592       7.508858457504
        70    1       32.646078135121      14.298937270004       8.663910881545
        71    1       32.646078135121      13.482193323112      13.284115033463
        72    1       30.645470058405      13.482193323112       9.818960533463
        73    1       32.646078135121      15.115681216895       4.043703957504
        74    1       30.645470058405      16.749169110678       5.198753609421
        75    1       30.645470058405      15.115681216895       0.578549457504
        76    1       32.646078135121      16.749169110678       1.733601049908
        77    1       32.646078135121      15.932425163787       6.353806033463
        78    1       30.645470058405      15.932425163787       2.888652919524
        79    1       32.646078135121      15.115681216895      10.974012957504
        80    1       30.645470058405      16.749169110678      12.129065381545
        81    1       30.645470058405      15.115681216895       7.508858457504
        82    1       32.646078135121      16.749169110678       8.663910881545
        83    1       32.646078135121      15.932425163787      13.284115033463
        84    1       30.645470058405      15.932425163787       9.818960533463
        85    1       32.646078135121      17.565913057570       4.043703957504
        86    1       30.645470058405      19.199400951353       5.198753609421
        87    1       30.645470058405      17.565913057570       0.578549457504
        88    1       32.646078135121      19.199400951353       1.733601049908
        89    1       32.646078135121      18.382657004462       6.353806033463
        90    1       30.645470058405      18.382657004462       2.888652919524
        91    1       32.646078135121      17.565913057570      10.974012957504
        92    1       30.645470058405      19.199400951353      12.129065381545
        93    1       30.645470058405      17.565913057570       7.508858457504
        94    1       32.646078135121      19.199400951353       8.663910881545
        95    1       32.646078135121      18.382657004462      13.284115033463
        96    1       30.645470058405      18.382657004462       9.818960533463
        97    1       32.646078135121      20.016144898245       4.043703957504
        98    1       30.645470058405      21.649646268317       5.198753609421
        99    1       30.645470058405      20.016144898245       0.578549457504
       100    1       32.646078135121      21.649646268317       1.733601049908
       101    1       32.646078135121      20.832902321425       6.353806033463
       102    1       30.645470058405      20.832902321425       2.888652919524
       103    1       32.646078135121      20.016144898245      10.974012957504
       104    1       30.645470058405      21.649646268317      12.129065381545
       105    1       30.645470058405      20.016144898245       7.508858457504
       106    1       32.646078135121      21.649646268317       8.663910881545
       107    1       32.646078135121      20.832902321425      13.284115033463
       108    1       30.645470058405      20.832902321425       9.818960533463
       109    1       32.646078135121      22.466390215208       4.043703957504
       110    1       30.645470058405      24.099878108991       5.198753609421
       111    1       30.645470058405      22.466390215208       0.578549457504
       112    1       32.646078135121      24.099878108991       1.733601049908
       113    1       32.646078135121      23.283134162100       6.353806033463
       114    1       30.645470058405      23.283134162100       2.888652919524
       115    1       32.646078135121      22.466390215208      10.974012957504
       116    1       30.645470058405      24.099878108991      12.129065381545
       117    1       30.645470058405      22.466390215208       7.508858457504
       118    1       32.646078135121      24.099878108991       8.663910881545
       119    1       32.646078135121      23.283134162100      13.284115033463
       120    1       30.645470058405      23.283134162100       9.818960533463
       121    1       32.646078135121      24.916622055883       4.043703957504
       122    1       30.645470058405      26.550109949666       5.198753609421
       123    1       30.645470058405      24.916622055883       0.578549457504
       124    1       32.646078135121      26.550109949666       1.733601049908
       125    1       32.646078135121      25.733366002775       6.353806033463
       126    1       30.645470058405      25.733366002775       2.888652919524
       127    1       32.646078135121      24.916622055883      10.974012957504
       128    1       30.645470058405      26.550109949666      12.129065381545
       129    1       30.645470058405      24.916622055883       7.508858457504
       130    1       32.646078135121      26.550109949666       8.663910881545
       131    1       32.646078135121      25.733366002775      13.284115033463
       132    1       30.645470058405      25.733366002775       9.818960533463
       133    1       32.646078135121      27.366853896558       4.043703957504
       134    1       30.645470058405      29.000341790341       5.198753609421
       135    1       30.645470058405      27.366853896558       0.578549457504
       136    1       32.646078135121      29.000341790341       1.733601049908
       137    1       32.646078135121      28.183597843449       6.353806033463
       138    1       30.645470058405      28.183597843449       2.888652919524
       139    1       32.646078135121      27.366853896558      10.974012957504
       140    1       30.645470058405      29.000341790341      12.129065381545
       141    1       30.645470058405      27.366853896558       7.508858457504
       142    1       32.646078135121      29.000341790341       8.663910881545
       143    1       32.646078135121      28.183597843449      13.284115033463
       144    1       30.645470058405      28.183597843449       9.818960533463
       145    1       32.646078135121      29.817085737233       4.043703957504
       146    1       30.645470058405      31.450573631016       5.198753609421
       147    1       30.645470058405      29.817085737233       0.578549457504
       148    1       32.646078135121      31.450573631016       1.733601049908
       149    1       32.646078135121      30.633829684124       6.353806033463
       150    1       30.645470058405      30.633829684124       2.888652919524
       151    1       32.646078135121      29.817085737233      10.974012957504
       152    1       30.645470058405      31.450573631016      12.129065381545
       153    1       30.645470058405      29.817085737233       7.508858457504
       154    1       32.646078135121      31.450573631016       8.663910881545
       155    1       32.646078135121      30.633829684124      13.284115033463
       156    1       30.645470058405      30.633829684124       9.818960533463
       157    1       32.646078135121      32.267317577907       4.043703957504
       158    1       30.645470058405      33.900805471691       5.198753609421
       159    1       30.645470058405      32.267317577907       0.578549457504
       160    1       32.646078135121      33.900805471691       1.733601049908
       161    1       32.646078135121      33.084061524799       6.353806033463
       162    1       30.645470058405      33.084061524799       2.888652919524
       163    1       32.646078135121      32.267317577907      10.974012957504
       164    1       30.645470058405      33.900805471691      12.129065381545
       165    1       30.645470058405      32.267317577907       7.508858457504
       166    1       32.646078135121      33.900805471691       8.663910881545
       167    1       32.646078135121      33.084061524799      13.284115033463
       168    1       30.645470058405      33.084061524799       9.818960533463
       169    1       32.646078135121      34.717562894871       4.043703957504
       170    1       30.645470058405      36.351050788654       5.198753609421
       171    1       30.645470058405      34.717562894871       0.578549457504
       172    1       32.646078135121      36.351050788654       1.733601049908
       173    1       32.646078135121      35.534306841762       6.353806033463
       174    1       30.645470058405      35.534306841762       2.888652919524
       175    1       32.646078135121      34.717562894871      10.974012957504
       176    1       30.645470058405      36.351050788654      12.129065381545
       177    1       30.645470058405      34.717562894871       7.508858457504
       178    1       32.646078135121      36.351050788654       8.663910881545
       179    1       32.646078135121      35.534306841762      13.284115033463
       180    1       30.645470058405      35.534306841762       9.818960533463
       181    1       32.646078135121      37.167794735546       4.043703957504
       182    1       30.645470058405      38.801282629329       5.198753609421
       183    1       30.645470058405      37.167794735546       0.578549457504
       184    1       32.646078135121      38.801282629329       1.733601049908
       185    1       32.646078135121      37.984538682437       6.353806033463
       186    1       30.645470058405      37.984538682437       2.888652919524
       187    1       32.646078135121      37.167794735546      10.974012957504
       188    1       30.645470058405      38.801282629329      12.129065381545
       189    1       30.645470058405      37.167794735546       7.508858457504
       190    1       32.646078135121      38.801282629329       8.663910881545
       191    1       32.646078135121      37.984538682437      13.284115033463
       192    1       30.645470058405      37.984538682437       9.818960533463
       193    1       32.646078135121      39.618026576220       4.043703957504
       194    1       30.645470058405      41.251514470004       5.198753609421
       195    1       30.645470058405      39.618026576220       0.578549457504
       196    1       32.646078135121      41.251514470004       1.733601049908
       197    1       32.646078135121      40.434770523112       6.353806033463
       198    1       30.645470058405      40.434770523112       2.888652919524
       199    1       32.646078135121      39.618026576220      10.974012957504
       200    1       30.645470058405      41.251514470004      12.129065381545
       201    1       30.645470058405      39.618026576220       7.508858457504
       202    1       32.646078135121      41.251514470004       8.663910881545
       203    1       32.646078135121      40.434770523112      13.284115033463
       204    1       30.645470058405      40.434770523112       9.818960533463
       205    1       32.646078135121      42.068258416895       4.043703957504
       206    1       30.645470058405      43.701746310678       5.198753609421
       207    1       30.645470058405      42.068258416895       0.578549457504
       208    1       32.646078135121      43.701746310678       1.733601049908
       209    1       32.646078135121      42.885002363787       6.353806033463
       210    1       30.645470058405      42.885002363787       2.888652919524
       211    1       32.646078135121      42.068258416895      10.974012957504
       212    1       30.645470058405      43.701746310678      12.129065381545
       213    1       30.645470058405      42.068258416895       7.508858457504
       214    1       32.646078135121      43.701746310678       8.663910881545
       215    1       32.646078135121      42.885002363787      13.284115033463
       216    1       30.645470058405      42.885002363787       9.818960533463
       217    1       32.646078135121      44.518490257570       4.043703957504
       218    1       30.645470058405      46.151978151353       5.198753609421
       219    1       30.645470058405      44.518490257570       0.578549457504
       220    1       32.646078135121      46.151978151353       1.733601049908
       221    1       32.646078135121      45.335234204462       6.353806033463
       222    1       30.645470058405      45.335234204462       2.888652919524
       223    1       32.646078135121      44.518490257570      10.974012957504
       224    1       30.645470058405      46.151978151353      12.129065381545
       225    1       30.645470058405      44.518490257570       7.508858457504
       226    1       32.646078135121      46.151978151353       8.663910881545
       227    1       32.646078135121      45.335234204462      13.284115033463
       228    1       30.645470058405      45.335234204462       9.818960533463
       229    1       32.646078135121      46.968722098245       4.043703957504
       230    1       30.645470058405      48.602223468317       5.198753609421
       231    1       30.645470058405      46.968722098245       0.578549457504
       232    1       32.646078135121      48.602223468317       1.733601049908
       233    1       32.646078135121      47.785479521425       6.353806033463
       234    1       30.645470058405      47.785479521425       2.888652919524
       235    1       32.646078135121      46.968722098245      10.974012957504
       236    1       30.645470058405      48.602223468317      12.129065381545
       237    1       30.645470058405      46.968722098245       7.508858457504
       238    1       32.646078135121      48.602223468317       8.663910881545
       239    1       32.646078135121      47.785479521425      13.284115033463
       240    1       30.645470058405      47.785479521425       9.818960533463
       241    1       32.646078135121      49.418967415208       4.043703957504
       242    1       30.645470058405      51.052455308991       5.198753609421
       243    1       30.645470058405      49.418967415208       0.578549457504
       244    1       32.646078135121      51.052455308991       1.733601049908
       245    1       32.646078135121      50.235711362100       6.353806033463
       246    1       30.645470058405      50.235711362100       2.888652919524
       247    1       32.646078135121      49.418967415208      10.974012957504
       248    1       30.645470058405      51.052455308991      12.129065381545
       249    1       30.645470058405      49.418967415208       7.508858457504
       250    1       32.646078135121      51.052455308991       8.663910881545
       251    1       32.646078135121      50.235711362100      13.284115033463
       252    1       30.645470058405      50.235711362100       9.818960533463
       253    1       32.646078135121      51.869199255883       4.043703957504
       254    1       30.645470058405      53.502687149666       5.198753609421
       255    1       30.645470058405      51.869199255883       0.578549457504
       256    1       32.646078135121      53.502687149666       1.733601049908
       257    1       32.646078135121      52.685943202775       6.353806033463
       258    1       30.645470058405      52.685943202775       2.888652919524
       259    1       32.646078135121      51.869199255883      10.974012957504
       260    1       30.645470058405      53.502687149666      12.129065381545
       261    1       30.645470058405      51.869199255883       7.508858457504
       262    1       32.646078135121      53.502687149666       8.663910881545
       263    1       32.646078135121      52.685943202775      13.284115033463
       264    1       30.645470058405      52.685943202775       9.818960533463
       265    1       32.646078135121      54.319431096558       4.043703957504
       266    1       30.645470058405      55.952918990341       5.198753609421
       267    1       30.645470058405      54.319431096558       0.578549457504
       268    1       32.646078135121      55.952918990341       1.733601049908
       269    1       32.646078135121      55.136175043449       6.353806033463
       270    1       30.645470058405      55.136175043449       2.888652919524
       271    1       32.646078135121      54.319431096558      10.974012957504
       272    1       30.645470058405      55.952918990341      12.129065381545
       273    1       30.645470058405      54.319431096558       7.508858457504
       274    1       32.646078135121      55.952918990341       8.663910881545
       275    1       32.646078135121      55.136175043449      13.284115033463
       276    1       30.645470058405      55.136175043449       9.818960533463
       277    1       32.646078135121      56.769662937233       4.043703957504
       278    1       30.645470058405      58.403150831016       5.198753609421
       279    1       30.645470058405      56.769662937233       0.578549457504
       280    1       32.646078135121      58.403150831016       1.733601049908
       281    1       32.646078135121      57.586406884124       6.353806033463
       282    1       30.645470058405      57.586406884124       2.888652919524
       283    1       32.646078135121      56.769662937233      10.974012957504
       284    1       30.645470058405      58.403150831016      12.129065381545
       285    1       30.645470058405      56.769662937233       7.508858457504
       286    1       32.646078135121      58.403150831016       8.663910881545
       287    1       32.646078135121      57.586406884124      13.284115033463
       288    1       30.645470058405      57.586406884124       9.818960533463
       289    1       32.646078135121      59.219894777907       4.043703957504
       290    1       30.645470058405      60.853382671691       5.198753609421
       291    1       30.645470058405      59.219894777907       0.578549457504
       292    1       32.646078135121      60.853382671691       1.733601049908
       293    1       32.646078135121      60.036638724799       6.353806033463
       294    1       30.645470058405      60.036638724799       2.888652919524
       295    1       32.646078135121      59.219894777907      10.974012957504
       296    1       30.645470058405      60.853382671691      12.129065381545
       297    1       30.645470058405      59.219894777907       7.508858457504
       298    1       32.646078135121      60.853382671691       8.663910881545
       299    1       32.646078135121      60.036638724799      13.284115033463
       300    1       30.645470058405      60.036638724799       9.818960533463
       301    1       32.646078135121      61.670140094871       4.043703957504
       302    1       30.645470058405      63.303627988654       5.198753609421
       303    1       30.645470058405      61.670140094871       0.578549457504
       304    1       32.646078135121      63.303627988654       1.733601049908
       305    1       32.646078135121      62.486884041762       6.353806033463
       306    1       30.645470058405      62.486884041762       2.888652919524
       307    1       32.646078135121      61.670140094871      10.974012957504
       308    1       30.645470058405      63.303627988654      12.129065381545
       309    1       30.645470058405      61.670140094871       7.508858457504
       310    1       32.646078135121      63.303627988654       8.663910881545
       311    1       32.646078135121      62.486884041762      13.284115033463
       312    1       30.645470058405      62.486884041762       9.818960533463
       313    1       32.646078135121      64.120371935546       4.043703957504
       314    1       30.645470058405      64.120371935546       0.578549457504
       315    1       32.646078135121      64.120371935546      10.974012957504
       316    1       30.645470058405      64.120371935546       7.508858457504
       317    1       32.646078135121      71.471067457570       4.043703957504
       318    1       30.645470058405      73.104555351353       5.198753609421
       319    1       30.645470058405      71.471067457570       0.578549457504
       320    1       32.646078135121      73.104555351353       1.733601049908
       321    1       32.646078135121      72.287811404462       6.353806033463
       322    1       30.645470058405      72.287811404462       2.888652919524
       323    1       32.646078135121      71.471067457570      10.974012957504
       324    1       30.645470058405      73.104555351353      12.129065381545
       325    1       30.645470058405      71.471067457570       7.508858457504
       326    1       32.646078135121      73.104555351353       8.663910881545
       327    1       32.646078135121      72.287811404462      13.284115033463
       328    1       30.645470058405      72.287811404462       9.818960533463
       329    1       32.646078135121      73.921299298245       4.043703957504
       330    1       30.645470058405      75.554800668317       5.198753609421
       331    1       30.645470058405      73.921299298245       0.578549457504
       332    1       32.646078135121      75.554800668317       1.733601049908
       333    1       32.646078135121      74.738056721425       6.353806033463
       334    1       30.645470058405      74.738056721425       2.888652919524
       335    1       32.646078135121      73.921299298245      10.974012957504
       336    1       30.645470058405      75.554800668317      12.129065381545
       337    1       30.645470058405      73.921299298245       7.508858457504
       338    1       32.646078135121      75.554800668317       8.663910881545
       339    1       32.646078135121      74.738056721425      13.284115033463
       340    1       30.645470058405      74.738056721425       9.818960533463
       341    1       32.646078135121      76.371544615208       4.043703957504
       342    1       30.645470058405      78.005032508991       5.198753609421
       343    1       30.645470058405      76.371544615208       0.578549457504
       344    1       32.646078135121      78.005032508991       1.733601049908
       345    1       32.646078135121      77.188288562100       6.353806033463
       346    1       30.645470058405      77.188288562100       2.888652919524
       347    1       32.646078135121      76.371544615208      10.974012957504
       348    1       30.645470058405      78.005032508991      12.129065381545
       349    1       30.645470058405      76.371544615208       7.508858457504
       350    1       32.646078135121      78.005032508991       8.663910881545
       351    1       32.646078135121      77.188288562100      13.284115033463
       352    1       30.645470058405      77.188288562100       9.818960533463
       353    1       32.646078135121      78.821776455883       4.043703957504
       354    1       30.645470058405      80.455264349666       5.198753609421
       355    1       30.645470058405      78.821776455883       0.578549457504
       356    1       32.646078135121      80.455264349666       1.733601049908
       357    1       32.646078135121      79.638520402775       6.353806033463
       358    1       30.645470058405      79.638520402775       2.888652919524
       359    1       32.646078135121      78.821776455883      10.974012957504
       360    1       30.645470058405      80.455264349666      12.129065381545
       361    1       30.645470058405      78.821776455883       7.508858457504
       362    1       32.646078135121      80.455264349666       8.663910881545
       363    1       32.646078135121      79.638520402775      13.284115033463
       364    1       30.645470058405      79.638520402775       9.818960533463
       365    1       32.646078135121      81.272008296558       4.043703957504
       366    1       30.645470058405      82.905496190341       5.198753609421
       367    1       30.645470058405      81.272008296558       0.578549457504
       368    1       32.646078135121      82.905496190341       1.733601049908
       369    1       32.646078135121      82.088752243449       6.353806033463
       370    1       30.645470058405      82.088752243449       2.888652919524