 # File generated with Atomsk by user on 2025-02-06 12:35:36
  
       23451  atoms
           2  atom types
 
      0.000000000000     132.021885000000  xlo xhi
      0.000000000000     134.762886000000  ylo yhi
      0.000000000000      27.721236000000  zlo zhi
 
Masses
 
            1   55.84500000             # Fe
            2   1.00800000              # H
 
Atoms # atomic
 
         1    1       32.646123119215       0.414176833257       4.043706923846
         2    1       30.645515042500       2.047666074669       5.198756575764
         3    1       30.645515042500       0.414176833257       0.578552423846
         4    1       32.646123119215       2.047666074669       1.733604016251
         5    1       32.646123119215       1.230922127778       6.353808999805
         6    1       30.645515042500       1.230922127778       2.888655885867
         7    1       32.646123119215       0.414176833257      10.974015923846
         8    1       30.645515042500       2.047666074669      12.129068347888
         9    1       30.645515042500       0.414176833257       7.508861423846
        10    1       32.646123119215       2.047666074669       8.663913847888
        11    1       32.646123119215       1.230922127778      13.284117999805
        12    1       30.645515042500       1.230922127778       9.818963499805
        13    1       32.646123119215       2.864411369190       4.043706923846
        14    1       30.645515042500       4.497900610602       5.198756575764
        15    1       30.645515042500       2.864411369190       0.578552423846
        16    1       32.646123119215       4.497900610602       1.733604016251
        17    1       32.646123119215       3.681155316081       6.353808999805
        18    1       30.645515042500       3.681155316081       2.888655885867
        19    1       32.646123119215       2.864411369190      10.974015923846
        20    1       30.645515042500       4.497900610602      12.129068347888
        21    1       30.645515042500       2.864411369190       7.508861423846
        22    1       32.646123119215       4.497900610602       8.663913847888
        23    1       32.646123119215       3.681155316081      13.284117999805
        24    1       30.645515042500       3.681155316081       9.818963499805
        25    1       32.646123119215       5.314645905122       4.043706923846
        26    1       30.645515042500       6.948135146534       5.198756575764
        27    1       30.645515042500       5.314645905122       0.578552423846
        28    1       32.646123119215       6.948135146534       1.733604016251
        29    1       32.646123119215       6.131389852014       6.353808999805
        30    1       30.645515042500       6.131389852014       2.888655885867
        31    1       32.646123119215       5.314645905122      10.974015923846
        32    1       30.645515042500       6.948135146534      12.129068347888
        33    1       30.645515042500       5.314645905122       7.508861423846
        34    1       32.646123119215       6.948135146534       8.663913847888
        35    1       32.646123119215       6.131389852014      13.284117999805
        36    1       30.645515042500       6.131389852014       9.818963499805
        37    1       32.646123119215       7.764879093426       4.043706923846
        38    1       30.645515042500       9.398369682467       5.198756575764
        39    1       30.645515042500       7.764879093426       0.578552423846
        40    1       32.646123119215       9.398369682467       1.733604016251
        41    1       32.646123119215       8.581624387946       6.353808999805
        42    1       30.645515042500       8.581624387946       2.888655885867
        43    1       32.646123119215       7.764879093426      10.974015923846
        44    1       30.645515042500       9.398369682467      12.129068347888
        45    1       30.645515042500       7.764879093426       7.508861423846
        46    1       32.646123119215       9.398369682467       8.663913847888
        47    1       32.646123119215       8.581624387946      13.284117999805
        48    1       30.645515042500       8.581624387946       9.818963499805
        49    1       32.646123119215      10.215113629358       4.043706923846
        50    1       30.645515042500      11.848602870770       5.198756575764
        51    1       30.645515042500      10.215113629358       0.578552423846
        52    1       32.646123119215      11.848602870770       1.733604016251
        53    1       32.646123119215      11.031858923879       6.353808999805
        54    1       30.645515042500      11.031858923879       2.888655885867
        55    1       32.646123119215      10.215113629358      10.974015923846
        56    1       30.645515042500      11.848602870770      12.129068347888
        57    1       30.645515042500      10.215113629358       7.508861423846
        58    1       32.646123119215      11.848602870770       8.663913847888
        59    1       32.646123119215      11.031858923879      13.284117999805
        60    1       30.645515042500      11.031858923879       9.818963499805
        61    1       32.646123119215      12.665348165291       4.043706923846
        62    1       30.645515042500      14.298837406703       5.198756575764
        63    1       30.645515042500      12.665348165291       0.578552423846
        64    1       32.646123119215      14.298837406703       1.733604016251
        65    1       32.646123119215      13.482093459811       6.353808999805
        66    1       30.645515042500      13.482093459811       2.888655885867
        67    1       32.646123119215      12.665348165291      10.974015923846
        68    1       30.645515042500      14.298837406703      12.129068347888
        69    1       30.645515042500      12.665348165291       7.508861423846
        70    1       32.646123119215      14.298837406703       8.663913847888
        71    1       32.646123119215      13.482093459811      13.284117999805
        72    1       30.645515042500      13.482093459811       9.818963499805
        73    1       32.646123119215      15.115581353595       4.043706923846
        74    1       30.645515042500      16.749069247378       5.198756575764
        75    1       30.645515042500      15.115581353595       0.578552423846
        76    1       32.646123119215      16.749069247378       1.733604016251
        77    1       32.646123119215      15.932325300486       6.353808999805
        78    1       30.645515042500      15.932325300486       2.888655885867
        79    1       32.646123119215      15.115581353595      10.974015923846
        80    1       30.645515042500      16.749069247378      12.129068347888
        81    1       30.645515042500      15.115581353595       7.508861423846
        82    1       32.646123119215      16.749069247378       8.663913847888
        83    1       32.646123119215      15.932325300486      13.284117999805
        84    1       30.645515042500      15.932325300486       9.818963499805
        85    1       32.646123119215      17.565813194269       4.043706923846
        86    1       30.645515042500      19.199301088053       5.198756575764
        87    1       30.645515042500      17.565813194269       0.578552423846
        88    1       32.646123119215      19.199301088053       1.733604016251
        89    1       32.646123119215      18.382557141161       6.353808999805
        90    1       30.645515042500      18.382557141161       2.888655885867
        91    1       32.646123119215      17.565813194269      10.974015923846
        92    1       30.645515042500      19.199301088053      12.129068347888
        93    1       30.645515042500      17.565813194269       7.508861423846
        94    1       32.646123119215      19.199301088053       8.663913847888
        95    1       32.646123119215      18.382557141161      13.284117999805
        96    1       30.645515042500      18.382557141161       9.818963499805
        97    1       32.646123119215      20.016045034944       4.043706923846
        98    1       30.645515042500      21.649546405016       5.198756575764
        99    1       30.645515042500      20.016045034944       0.578552423846
       100    1       32.646123119215      21.649546405016       1.733604016251
       101    1       32.646123119215      20.832802458124       6.353808999805
       102    1       30.645515042500      20.832802458124       2.888655885867
       103    1       32.646123119215      20.016045034944      10.974015923846
       104    1       30.645515042500      21.649546405016      12.129068347888
       105    1       30.645515042500      20.016045034944       7.508861423846
       106    1       32.646123119215      21.649546405016       8.663913847888
       107    1       32.646123119215      20.832802458124      13.284117999805
       108    1       30.645515042500      20.832802458124       9.818963499805
       109    1       32.646123119215      22.466290351908       4.043706923846
       110    1       30.645515042500      24.099778245691       5.198756575764
       111    1       30.645515042500      22.466290351908       0.578552423846
       112    1       32.646123119215      24.099778245691       1.733604016251
       113    1       32.646123119215      23.283034298799       6.353808999805
       114    1       30.645515042500      23.283034298799       2.888655885867
       115    1       32.646123119215      22.466290351908      10.974015923846
       116    1       30.645515042500      24.099778245691      12.129068347888
       117    1       30.645515042500      22.466290351908       7.508861423846
       118    1       32.646123119215      24.099778245691       8.663913847888
       119    1       32.646123119215      23.283034298799      13.284117999805
       120    1       30.645515042500      23.283034298799       9.818963499805
       121    1       32.646123119215      24.916522192582       4.043706923846
       122    1       30.645515042500      26.550010086366       5.198756575764
       123    1       30.645515042500      24.916522192582       0.578552423846
       124    1       32.646123119215      26.550010086366       1.733604016251
       125    1       32.646123119215      25.733266139474       6.353808999805
       126    1       30.645515042500      25.733266139474       2.888655885867
       127    1       32.646123119215      24.916522192582      10.974015923846
       128    1       30.645515042500      26.550010086366      12.129068347888
       129    1       30.645515042500      24.916522192582       7.508861423846
       130    1       32.646123119215      26.550010086366       8.663913847888
       131    1       32.646123119215      25.733266139474      13.284117999805
       132    1       30.645515042500      25.733266139474       9.818963499805
       133    1       32.646123119215      27.366754033257       4.043706923846
       134    1       30.645515042500      29.000241927040       5.198756575764
       135    1       30.645515042500      27.366754033257       0.578552423846
       136    1       32.646123119215      29.000241927040       1.733604016251
       137    1       32.646123119215      28.183497980149       6.353808999805
       138    1       30.645515042500      28.183497980149       2.888655885867
       139    1       32.646123119215      27.366754033257      10.974015923846
       140    1       30.645515042500      29.000241927040      12.129068347888
       141    1       30.645515042500      27.366754033257       7.508861423846
       142    1       32.646123119215      29.000241927040       8.663913847888
       143    1       32.646123119215      28.183497980149      13.284117999805
       144    1       30.645515042500      28.183497980149       9.818963499805
       145    1       32.646123119215      29.816985873932       4.043706923846
       146    1       30.645515042500      31.450473767715       5.198756575764
       147    1       30.645515042500      29.816985873932       0.578552423846
       148    1       32.646123119215      31.450473767715       1.733604016251
       149    1       32.646123119215      30.633729820824       6.353808999805
       150    1       30.645515042500      30.633729820824       2.888655885867
       151    1       32.646123119215      29.816985873932      10.974015923846
       152    1       30.645515042500      31.450473767715      12.129068347888
       153    1       30.645515042500      29.816985873932       7.508861423846
       154    1       32.646123119215      31.450473767715       8.663913847888
       155    1       32.646123119215      30.633729820824      13.284117999805
       156    1       30.645515042500      30.633729820824       9.818963499805
       157    1       32.646123119215      32.267217714607       4.043706923846
       158    1       30.645515042500      33.900705608390       5.198756575764
       159    1       30.645515042500      32.267217714607       0.578552423846
       160    1       32.646123119215      33.900705608390       1.733604016251
       161    1       32.646123119215      33.083961661498       6.353808999805
       162    1       30.645515042500      33.083961661498       2.888655885867
       163    1       32.646123119215      32.267217714607      10.974015923846
       164    1       30.645515042500      33.900705608390      12.129068347888
       165    1       30.645515042500      32.267217714607       7.508861423846
       166    1       32.646123119215      33.900705608390       8.663913847888
       167    1       32.646123119215      33.083961661498      13.284117999805
       168    1       30.645515042500      33.083961661498       9.818963499805
       169    1       32.646123119215      34.717463031570       4.043706923846
       170    1       30.645515042500      36.350950925353       5.198756575764
       171    1       30.645515042500      34.717463031570       0.578552423846
       172    1       32.646123119215      36.350950925353       1.733604016251
       173    1       32.646123119215      35.534206978462       6.353808999805
       174    1       30.645515042500      35.534206978462       2.888655885867
       175    1       32.646123119215      34.717463031570      10.974015923846
       176    1       30.645515042500      36.350950925353      12.129068347888
       177    1       30.645515042500      34.717463031570       7.508861423846
       178    1       32.646123119215      36.350950925353       8.663913847888
       179    1       32.646123119215      35.534206978462      13.284117999805
       180    1       30.645515042500      35.534206978462       9.818963499805
       181    1       32.646123119215      37.167694872245       4.043706923846
       182    1       30.645515042500      38.801182766028       5.198756575764
       183    1       30.645515042500      37.167694872245       0.578552423846
       184    1       32.646123119215      38.801182766028       1.733604016251
       185    1       32.646123119215      37.984438819137       6.353808999805
       186    1       30.645515042500      37.984438819137       2.888655885867
       187    1       32.646123119215      37.167694872245      10.974015923846
       188    1       30.645515042500      38.801182766028      12.129068347888
       189    1       30.645515042500      37.167694872245       7.508861423846
       190    1       32.646123119215      38.801182766028       8.663913847888
       191    1       32.646123119215      37.984438819137      13.284117999805
       192    1       30.645515042500      37.984438819137       9.818963499805
       193    1       32.646123119215      39.617926712920       4.043706923846
       194    1       30.645515042500      41.251414606703       5.198756575764
       195    1       30.645515042500      39.617926712920       0.578552423846
       196    1       32.646123119215      41.251414606703       1.733604016251
       197    1       32.646123119215      40.434670659811       6.353808999805
       198    1       30.645515042500      40.434670659811       2.888655885867
       199    1       32.646123119215      39.617926712920      10.974015923846
       200    1       30.645515042500      41.251414606703      12.129068347888
       201    1       30.645515042500      39.617926712920       7.508861423846
       202    1       32.646123119215      41.251414606703       8.663913847888
       203    1       32.646123119215      40.434670659811      13.284117999805
       204    1       30.645515042500      40.434670659811       9.818963499805
       205    1       32.646123119215      42.068158553595       4.043706923846
       206    1       30.645515042500      43.701646447378       5.198756575764
       207    1       30.645515042500      42.068158553595       0.578552423846
       208    1       32.646123119215      43.701646447378       1.733604016251
       209    1       32.646123119215      42.884902500486       6.353808999805
       210    1       30.645515042500      42.884902500486       2.888655885867
       211    1       32.646123119215      42.068158553595      10.974015923846
       212    1       30.645515042500      43.701646447378      12.129068347888
       213    1       30.645515042500      42.068158553595       7.508861423846
       214    1       32.646123119215      43.701646447378       8.663913847888
       215    1       32.646123119215      42.884902500486      13.284117999805
       216    1       30.645515042500      42.884902500486       9.818963499805
       217    1       32.646123119215      44.518390394269       4.043706923846
       218    1       30.645515042500      46.151878288053       5.198756575764
       219    1       30.645515042500      44.518390394269       0.578552423846
       220    1       32.646123119215      46.151878288053       1.733604016251
       221    1       32.646123119215      45.335134341161       6.353808999805
       222    1       30.645515042500      45.335134341161       2.888655885867
       223    1       32.646123119215      44.518390394269      10.974015923846
       224    1       30.645515042500      46.151878288053      12.129068347888
       225    1       30.645515042500      44.518390394269       7.508861423846
       226    1       32.646123119215      46.151878288053       8.663913847888
       227    1       32.646123119215      45.335134341161      13.284117999805
       228    1       30.645515042500      45.335134341161       9.818963499805
       229    1       32.646123119215      46.968622234944       4.043706923846
       230    1       30.645515042500      48.602123605016       5.198756575764
       231    1       30.645515042500      46.968622234944       0.578552423846
       232    1       32.646123119215      48.602123605016       1.733604016251
       233    1       32.646123119215      47.785379658124       6.353808999805
       234    1       30.645515042500      47.785379658124       2.888655885867
       235    1       32.646123119215      46.968622234944      10.974015923846
       236    1       30.645515042500      48.602123605016      12.129068347888
       237    1       30.645515042500      46.968622234944       7.508861423846
       238    1       32.646123119215      48.602123605016       8.663913847888
       239    1       32.646123119215      47.785379658124      13.284117999805
       240    1       30.645515042500      47.785379658124       9.818963499805
       241    1       32.646123119215      49.418867551908       4.043706923846
       242    1       30.645515042500      51.052355445691       5.198756575764
       243    1       30.645515042500      49.418867551908       0.578552423846
       244    1       32.646123119215      51.052355445691       1.733604016251
       245    1       32.646123119215      50.235611498799       6.353808999805
       246    1       30.645515042500      50.235611498799       2.888655885867
       247    1       32.646123119215      49.418867551908      10.974015923846
       248    1       30.645515042500      51.052355445691      12.129068347888
       249    1       30.645515042500      49.418867551908       7.508861423846
       250    1       32.646123119215      51.052355445691       8.663913847888
       251    1       32.646123119215      50.235611498799      13.284117999805
       252    1       30.645515042500      50.235611498799       9.818963499805
       253    1       32.646123119215      51.869099392582       4.043706923846
       254    1       30.645515042500      53.502587286366       5.198756575764
       255    1       30.645515042500      51.869099392582       0.578552423846
       256    1       32.646123119215      53.502587286366       1.733604016251
       257    1       32.646123119215      52.685843339474       6.353808999805
       258    1       30.645515042500      52.685843339474       2.888655885867
       259    1       32.646123119215      51.869099392582      10.974015923846
       260    1       30.645515042500      53.502587286366      12.129068347888
       261    1       30.645515042500      51.869099392582       7.508861423846
       262    1       32.646123119215      53.502587286366       8.663913847888
       263    1       32.646123119215      52.685843339474      13.284117999805
       264    1       30.645515042500      52.685843339474       9.818963499805
       265    1       32.646123119215      54.319331233257       4.043706923846
       266    1       30.645515042500      55.952819127040       5.198756575764
       267    1       30.645515042500      54.319331233257       0.578552423846
       268    1       32.646123119215      55.952819127040       1.733604016251
       269    1       32.646123119215      55.136075180149       6.353808999805
       270    1       30.645515042500      55.136075180149       2.888655885867
       271    1       32.646123119215      54.319331233257      10.974015923846
       272    1       30.645515042500      55.952819127040      12.129068347888
       273    1       30.645515042500      54.319331233257       7.508861423846
       274    1       32.646123119215      55.952819127040       8.663913847888
       275    1       32.646123119215      55.136075180149      13.284117999805
       276    1       30.645515042500      55.136075180149       9.818963499805
       277    1       32.646123119215      56.769563073932       4.043706923846
       278    1       30.645515042500      58.403050967715       5.198756575764
       279    1       30.645515042500      56.769563073932       0.578552423846
       280    1       32.646123119215      58.403050967715       1.733604016251
       281    1       32.646123119215      57.586307020824       6.353808999805
       282    1       30.645515042500      57.586307020824       2.888655885867
       283    1       32.646123119215      56.769563073932      10.974015923846
       284    1       30.645515042500      58.403050967715      12.129068347888
       285    1       30.645515042500      56.769563073932       7.508861423846
       286    1       32.646123119215      58.403050967715       8.663913847888
       287    1       32.646123119215      57.586307020824      13.284117999805
       288    1       30.645515042500      57.586307020824       9.818963499805
       289    1       32.646123119215      59.219794914607       4.043706923846
       290    1       30.645515042500      60.853282808390       5.198756575764
       291    1       30.645515042500      59.219794914607       0.578552423846
       292    1       32.646123119215      60.853282808390       1.733604016251
       293    1       32.646123119215      60.036538861498       6.353808999805
       294    1       30.645515042500      60.036538861498       2.888655885867
       295    1       32.646123119215      59.219794914607      10.974015923846
       296    1       30.645515042500      60.853282808390      12.129068347888
       297    1       30.645515042500      59.219794914607       7.508861423846
       298    1       32.646123119215      60.853282808390       8.663913847888
       299    1       32.646123119215      60.036538861498      13.284117999805
       300    1       30.645515042500      60.036538861498       9.818963499805
       301    1       32.646123119215      61.670040231570       4.043706923846
       302    1       30.645515042500      63.303528125353       5.198756575764
       303    1       30.645515042500      61.670040231570       0.578552423846
       304    1       32.646123119215      63.303528125353       1.733604016251
       305    1       32.646123119215      62.486784178462       6.353808999805
       306    1       30.645515042500      62.486784178462       2.888655885867
       307    1       32.646123119215      61.670040231570      10.974015923846
       308    1       30.645515042500      63.303528125353      12.129068347888
       309    1       30.645515042500      61.670040231570       7.508861423846
       310    1       32.646123119215      63.303528125353       8.663913847888
       311    1       32.646123119215      62.486784178462      13.284117999805
       312    1       30.645515042500      62.486784178462       9.818963499805
       313    1       32.646123119215      64.120272072245       4.043706923846
       314    1       30.645515042500      64.120272072245       0.578552423846
       315    1       32.646123119215      64.120272072245      10.974015923846
       316    1       30.645515042500      64.120272072245       7.508861423846
       317    1       32.646123119215      71.470967594269       4.043706923846
       318    1       30.645515042500      73.104455488053       5.198756575764
       319    1       30.645515042500      71.470967594269       0.578552423846
       320    1       32.646123119215      73.104455488053       1.733604016251
       321    1       32.646123119215      72.287711541161       6.353808999805
       322    1       30.645515042500      72.287711541161       2.888655885867
       323    1       32.646123119215      71.470967594269      10.974015923846
       324    1       30.645515042500      73.104455488053      12.129068347888
       325    1       30.645515042500      71.470967594269       7.508861423846
       326    1       32.646123119215      73.104455488053       8.663913847888
       327    1       32.646123119215      72.287711541161      13.284117999805
       328    1       30.645515042500      72.287711541161       9.818963499805
       329    1       32.646123119215      73.921199434944       4.043706923846
       330    1       30.645515042500      75.554700805016       5.198756575764
       331    1       30.645515042500      73.921199434944       0.578552423846
       332    1       32.646123119215      75.554700805016       1.733604016251
       333    1       32.646123119215      74.737956858124       6.353808999805
       334    1       30.645515042500      74.737956858124       2.888655885867
       335    1       32.646123119215      73.921199434944      10.974015923846
       336    1       30.645515042500      75.554700805016      12.129068347888
       337    1       30.645515042500      73.921199434944       7.508861423846
       338    1       32.646123119215      75.554700805016       8.663913847888
       339    1       32.646123119215      74.737956858124      13.284117999805
       340    1       30.645515042500      74.737956858124       9.818963499805
       341    1       32.646123119215      76.371444751908       4.043706923846
       342    1       30.645515042500      78.004932645691       5.198756575764
       343    1       30.645515042500      76.371444751908       0.578552423846
       344    1       32.646123119215      78.004932645691       1.733604016251
       345    1       32.646123119215      77.188188698799       6.353808999805
       346    1       30.645515042500      77.188188698799       2.888655885867
       347    1       32.646123119215      76.371444751908      10.974015923846
       348    1       30.645515042500      78.004932645691      12.129068347888
       349    1       30.645515042500      76.371444751908       7.508861423846
       350    1       32.646123119215      78.004932645691       8.663913847888
       351    1       32.646123119215      77.188188698799      13.284117999805
       352    1       30.645515042500      77.188188698799       9.818963499805
       353    1       32.646123119215      78.821676592582       4.043706923846
       354    1       30.645515042500      80.455164486366       5.198756575764
       355    1       30.645515042500      78.821676592582       0.578552423846
       356    1       32.646123119215      80.455164486366       1.733604016251
       357    1       32.646123119215      79.638420539474       6.353808999805
       358    1       30.645515042500      79.638420539474       2.888655885867
       359    1       32.646123119215      78.821676592582      10.974015923846
       360    1       30.645515042500      80.455164486366      12.129068347888
       361    1       30.645515042500      78.821676592582       7.508861423846
       362    1       32.646123119215      80.455164486366       8.663913847888
       363    1       32.646123119215      79.638420539474      13.284117999805
       364    1       30.645515042500      79.638420539474       9.818963499805
       365    1       32.646123119215      81.271908433257       4.043706923846
       366    1       30.645515042500      82.905396327040       5.198756575764
       367    1       30.645515042500      81.271908433257       0.578552423846
       368    1       32.646123119215      82.905396327040       1.733604016251
       369    1       32.646123119215      82.088652380149       6.353808999805
       370    1       30.645515042500      82.088652380149       2.888655885867