 # File generated with Atomsk by user on 2025-01-20 22:06:17
  
       11716  atoms
           1  atom types
 
      0.000000000000      72.021885000000  xlo xhi
      0.000000000000     134.762886000000  ylo yhi
      0.000000000000      13.860618000000  zlo zhi
 
Masses
 
            1   55.84500000             # Fe
 
Atoms # atomic
 
         1    1        2.000608076715       0.000000000000       3.465154500000
         2    1        0.000000000000       1.633489241412       4.620205537979
         3    1        0.000000000000       0.000000000000       0.000000000000
         4    1        2.000608076715       1.633489241412       1.155051453798
         5    1        2.000608076715       0.816744755469       5.775257962021
         6    1        0.000000000000       0.816744755469       2.310103462021
         7    1        2.000608076715       0.000000000000      10.395463500000
         8    1        0.000000000000       1.633489241412      11.550514537979
         9    1        0.000000000000       0.000000000000       6.930309000000
        10    1        2.000608076715       1.633489241412       8.085360037979
        11    1        2.000608076715       0.816744755469      12.705566962021
        12    1        0.000000000000       0.816744755469       9.240412462021
        13    1        2.000608076715       2.450234535933       3.465154500000
        14    1        0.000000000000       4.083723777345       4.620205537979
        15    1        0.000000000000       2.450234535933       0.000000000000
        16    1        2.000608076715       4.083723777345       1.155051453798
        17    1        2.000608076715       3.266978482824       5.775257962021
        18    1        0.000000000000       3.266978482824       2.310103462021
        19    1        2.000608076715       2.450234535933      10.395463500000
        20    1        0.000000000000       4.083723777345      11.550514537979
        21    1        0.000000000000       2.450234535933       6.930309000000
        22    1        2.000608076715       4.083723777345       8.085360037979
        23    1        2.000608076715       3.266978482824      12.705566962021
        24    1        0.000000000000       3.266978482824       9.240412462021
        25    1        2.000608076715       4.900469071865       3.465154500000
        26    1        0.000000000000       6.533958313277       4.620205537979
        27    1        0.000000000000       4.900469071865       0.000000000000
        28    1        2.000608076715       6.533958313277       1.155051453798
        29    1        2.000608076715       5.717213018757       5.775257962021
        30    1        0.000000000000       5.717213018757       2.310103462021
        31    1        2.000608076715       4.900469071865      10.395463500000
        32    1        0.000000000000       6.533958313277      11.550514537979
        33    1        0.000000000000       4.900469071865       6.930309000000
        34    1        2.000608076715       6.533958313277       8.085360037979
        35    1        2.000608076715       5.717213018757      12.705566962021
        36    1        0.000000000000       5.717213018757       9.240412462021
        37    1        2.000608076715       7.350702260169       3.465154500000
        38    1        0.000000000000       8.984192849210       4.620205537979
        39    1        0.000000000000       7.350702260169       0.000000000000
        40    1        2.000608076715       8.984192849210       1.155051453798
        41    1        2.000608076715       8.167447554689       5.775257962021
        42    1        0.000000000000       8.167447554689       2.310103462021
        43    1        2.000608076715       7.350702260169      10.395463500000
        44    1        0.000000000000       8.984192849210      11.550514537979
        45    1        0.000000000000       7.350702260169       6.930309000000
        46    1        2.000608076715       8.984192849210       8.085360037979
        47    1        2.000608076715       8.167447554689      12.705566962021
        48    1        0.000000000000       8.167447554689       9.240412462021
        49    1        2.000608076715       9.800936796101       3.465154500000
        50    1        0.000000000000      11.434426037513       4.620205537979
        51    1        0.000000000000       9.800936796101       0.000000000000
        52    1        2.000608076715      11.434426037513       1.155051453798
        53    1        2.000608076715      10.617682090622       5.775257962021
        54    1        0.000000000000      10.617682090622       2.310103462021
        55    1        2.000608076715       9.800936796101      10.395463500000
        56    1        0.000000000000      11.434426037513      11.550514537979
        57    1        0.000000000000       9.800936796101       6.930309000000
        58    1        2.000608076715      11.434426037513       8.085360037979
        59    1        2.000608076715      10.617682090622      12.705566962021
        60    1        0.000000000000      10.617682090622       9.240412462021
        61    1        2.000608076715      12.251171332034       3.465154500000
        62    1        0.000000000000      13.884660573446       4.620205537979
        63    1        0.000000000000      12.251171332034       0.000000000000
        64    1        2.000608076715      13.884660573446       1.155051453798
        65    1        2.000608076715      13.067916626554       5.775257962021
        66    1        0.000000000000      13.067916626554       2.310103462021
        67    1        2.000608076715      12.251171332034      10.395463500000
        68    1        0.000000000000      13.884660573446      11.550514537979
        69    1        0.000000000000      12.251171332034       6.930309000000
        70    1        2.000608076715      13.884660573446       8.085360037979
        71    1        2.000608076715      13.067916626554      12.705566962021
        72    1        0.000000000000      13.067916626554       9.240412462021
        73    1        2.000608076715      14.701404520337       3.465154500000
        74    1        0.000000000000      16.334892414121       4.620205537979
        75    1        0.000000000000      14.701404520337       0.000000000000
        76    1        2.000608076715      16.334892414121       1.155051453798
        77    1        2.000608076715      15.518148467229       5.775257962021
        78    1        0.000000000000      15.518148467229       2.310103462021
        79    1        2.000608076715      14.701404520337      10.395463500000
        80    1        0.000000000000      16.334892414121      11.550514537979
        81    1        0.000000000000      14.701404520337       6.930309000000
        82    1        2.000608076715      16.334892414121       8.085360037979
        83    1        2.000608076715      15.518148467229      12.705566962021
        84    1        0.000000000000      15.518148467229       9.240412462021
        85    1        2.000608076715      17.151636361012       3.465154500000
        86    1        0.000000000000      18.785124254795       4.620205537979
        87    1        0.000000000000      17.151636361012       0.000000000000
        88    1        2.000608076715      18.785124254795       1.155051453798
        89    1        2.000608076715      17.968380307904       5.775257962021
        90    1        0.000000000000      17.968380307904       2.310103462021
        91    1        2.000608076715      17.151636361012      10.395463500000
        92    1        0.000000000000      18.785124254795      11.550514537979
        93    1        0.000000000000      17.151636361012       6.930309000000
        94    1        2.000608076715      18.785124254795       8.085360037979
        95    1        2.000608076715      17.968380307904      12.705566962021
        96    1        0.000000000000      17.968380307904       9.240412462021
        97    1        2.000608076715      19.601868201687       3.465154500000
        98    1        0.000000000000      21.235369571759       4.620205537979
        99    1        0.000000000000      19.601868201687       0.000000000000
       100    1        2.000608076715      21.235369571759       1.155051453798
       101    1        2.000608076715      20.418625624867       5.775257962021
       102    1        0.000000000000      20.418625624867       2.310103462021
       103    1        2.000608076715      19.601868201687      10.395463500000
       104    1        0.000000000000      21.235369571759      11.550514537979
       105    1        0.000000000000      19.601868201687       6.930309000000
       106    1        2.000608076715      21.235369571759       8.085360037979
       107    1        2.000608076715      20.418625624867      12.705566962021
       108    1        0.000000000000      20.418625624867       9.240412462021
       109    1        2.000608076715      22.052113518650       3.465154500000
       110    1        0.000000000000      23.685601412434       4.620205537979
       111    1        0.000000000000      22.052113518650       0.000000000000
       112    1        2.000608076715      23.685601412434       1.155051453798
       113    1        2.000608076715      22.868857465542       5.775257962021
       114    1        0.000000000000      22.868857465542       2.310103462021
       115    1        2.000608076715      22.052113518650      10.395463500000
       116    1        0.000000000000      23.685601412434      11.550514537979
       117    1        0.000000000000      22.052113518650       6.930309000000
       118    1        2.000608076715      23.685601412434       8.085360037979
       119    1        2.000608076715      22.868857465542      12.705566962021
       120    1        0.000000000000      22.868857465542       9.240412462021
       121    1        2.000608076715      24.502345359325       3.465154500000
       122    1        0.000000000000      26.135833253108       4.620205537979
       123    1        0.000000000000      24.502345359325       0.000000000000
       124    1        2.000608076715      26.135833253108       1.155051453798
       125    1        2.000608076715      25.319089306217       5.775257962021
       126    1        0.000000000000      25.319089306217       2.310103462021
       127    1        2.000608076715      24.502345359325      10.395463500000
       128    1        0.000000000000      26.135833253108      11.550514537979
       129    1        0.000000000000      24.502345359325       6.930309000000
       130    1        2.000608076715      26.135833253108       8.085360037979
       131    1        2.000608076715      25.319089306217      12.705566962021
       132    1        0.000000000000      25.319089306217       9.240412462021
       133    1        2.000608076715      26.952577200000       3.465154500000
       134    1        0.000000000000      28.586065093783       4.620205537979
       135    1        0.000000000000      26.952577200000       0.000000000000
       136    1        2.000608076715      28.586065093783       1.155051453798
       137    1        2.000608076715      27.769321146892       5.775257962021
       138    1        0.000000000000      27.769321146892       2.310103462021
       139    1        2.000608076715      26.952577200000      10.395463500000
       140    1        0.000000000000      28.586065093783      11.550514537979
       141    1        0.000000000000      26.952577200000       6.930309000000
       142    1        2.000608076715      28.586065093783       8.085360037979
       143    1        2.000608076715      27.769321146892      12.705566962021
       144    1        0.000000000000      27.769321146892       9.240412462021
       145    1        2.000608076715      29.402809040675       3.465154500000
       146    1        0.000000000000      31.036296934458       4.620205537979
       147    1        0.000000000000      29.402809040675       0.000000000000
       148    1        2.000608076715      31.036296934458       1.155051453798
       149    1        2.000608076715      30.219552987566       5.775257962021
       150    1        0.000000000000      30.219552987566       2.310103462021
       151    1        2.000608076715      29.402809040675      10.395463500000
       152    1        0.000000000000      31.036296934458      11.550514537979
       153    1        0.000000000000      29.402809040675       6.930309000000
       154    1        2.000608076715      31.036296934458       8.085360037979
       155    1        2.000608076715      30.219552987566      12.705566962021
       156    1        0.000000000000      30.219552987566       9.240412462021
       157    1        2.000608076715      31.853040881350       3.465154500000
       158    1        0.000000000000      33.486528775133       4.620205537979
       159    1        0.000000000000      31.853040881350       0.000000000000
       160    1        2.000608076715      33.486528775133       1.155051453798
       161    1        2.000608076715      32.669784828241       5.775257962021
       162    1        0.000000000000      32.669784828241       2.310103462021
       163    1        2.000608076715      31.853040881350      10.395463500000
       164    1        0.000000000000      33.486528775133      11.550514537979
       165    1        0.000000000000      31.853040881350       6.930309000000
       166    1        2.000608076715      33.486528775133       8.085360037979
       167    1        2.000608076715      32.669784828241      12.705566962021
       168    1        0.000000000000      32.669784828241       9.240412462021
       169    1        2.000608076715      34.303286198313       3.465154500000
       170    1        0.000000000000      35.936774092096       4.620205537979
       171    1        0.000000000000      34.303286198313       0.000000000000
       172    1        2.000608076715      35.936774092096       1.155051453798
       173    1        2.000608076715      35.120030145205       5.775257962021
       174    1        0.000000000000      35.120030145205       2.310103462021
       175    1        2.000608076715      34.303286198313      10.395463500000
       176    1        0.000000000000      35.936774092096      11.550514537979
       177    1        0.000000000000      34.303286198313       6.930309000000
       178    1        2.000608076715      35.936774092096       8.085360037979
       179    1        2.000608076715      35.120030145205      12.705566962021
       180    1        0.000000000000      35.120030145205       9.240412462021
       181    1        2.000608076715      36.753518038988       3.465154500000
       182    1        0.000000000000      38.387005932771       4.620205537979
       183    1        0.000000000000      36.753518038988       0.000000000000
       184    1        2.000608076715      38.387005932771       1.155051453798
       185    1        2.000608076715      37.570261985879       5.775257962021
       186    1        0.000000000000      37.570261985879       2.310103462021
       187    1        2.000608076715      36.753518038988      10.395463500000
       188    1        0.000000000000      38.387005932771      11.550514537979
       189    1        0.000000000000      36.753518038988       6.930309000000
       190    1        2.000608076715      38.387005932771       8.085360037979
       191    1        2.000608076715      37.570261985879      12.705566962021
       192    1        0.000000000000      37.570261985879       9.240412462021
       193    1        2.000608076715      39.203749879663       3.465154500000
       194    1        0.000000000000      40.837237773446       4.620205537979
       195    1        0.000000000000      39.203749879663       0.000000000000
       196    1        2.000608076715      40.837237773446       1.155051453798
       197    1        2.000608076715      40.020493826554       5.775257962021
       198    1        0.000000000000      40.020493826554       2.310103462021
       199    1        2.000608076715      39.203749879663      10.395463500000
       200    1        0.000000000000      40.837237773446      11.550514537979
       201    1        0.000000000000      39.203749879663       6.930309000000
       202    1        2.000608076715      40.837237773446       8.085360037979
       203    1        2.000608076715      40.020493826554      12.705566962021
       204    1        0.000000000000      40.020493826554       9.240412462021
       205    1        2.000608076715      41.653981720337       3.465154500000
       206    1        0.000000000000      43.287469614121       4.620205537979
       207    1        0.000000000000      41.653981720337       0.000000000000
       208    1        2.000608076715      43.287469614121       1.155051453798
       209    1        2.000608076715      42.470725667229       5.775257962021
       210    1        0.000000000000      42.470725667229       2.310103462021
       211    1        2.000608076715      41.653981720337      10.395463500000
       212    1        0.000000000000      43.287469614121      11.550514537979
       213    1        0.000000000000      41.653981720337       6.930309000000
       214    1        2.000608076715      43.287469614121       8.085360037979
       215    1        2.000608076715      42.470725667229      12.705566962021
       216    1        0.000000000000      42.470725667229       9.240412462021
       217    1        2.000608076715      44.104213561012       3.465154500000
       218    1        0.000000000000      45.737701454795       4.620205537979
       219    1        0.000000000000      44.104213561012       0.000000000000
       220    1        2.000608076715      45.737701454795       1.155051453798
       221    1        2.000608076715      44.920957507904       5.775257962021
       222    1        0.000000000000      44.920957507904       2.310103462021
       223    1        2.000608076715      44.104213561012      10.395463500000
       224    1        0.000000000000      45.737701454795      11.550514537979
       225    1        0.000000000000      44.104213561012       6.930309000000
       226    1        2.000608076715      45.737701454795       8.085360037979
       227    1        2.000608076715      44.920957507904      12.705566962021
       228    1        0.000000000000      44.920957507904       9.240412462021
       229    1        2.000608076715      46.554445401687       3.465154500000
       230    1        0.000000000000      48.187946771759       4.620205537979
       231    1        0.000000000000      46.554445401687       0.000000000000
       232    1        2.000608076715      48.187946771759       1.155051453798
       233    1        2.000608076715      47.371202824867       5.775257962021
       234    1        0.000000000000      47.371202824867       2.310103462021
       235    1        2.000608076715      46.554445401687      10.395463500000
       236    1        0.000000000000      48.187946771759      11.550514537979
       237    1        0.000000000000      46.554445401687       6.930309000000
       238    1        2.000608076715      48.187946771759       8.085360037979
       239    1        2.000608076715      47.371202824867      12.705566962021
       240    1        0.000000000000      47.371202824867       9.240412462021
       241    1        2.000608076715      49.004690718650       3.465154500000
       242    1        0.000000000000      50.638178612434       4.620205537979
       243    1        0.000000000000      49.004690718650       0.000000000000
       244    1        2.000608076715      50.638178612434       1.155051453798
       245    1        2.000608076715      49.821434665542       5.775257962021
       246    1        0.000000000000      49.821434665542       2.310103462021
       247    1        2.000608076715      49.004690718650      10.395463500000
       248    1        0.000000000000      50.638178612434      11.550514537979
       249    1        0.000000000000      49.004690718650       6.930309000000
       250    1        2.000608076715      50.638178612434       8.085360037979
       251    1        2.000608076715      49.821434665542      12.705566962021
       252    1        0.000000000000      49.821434665542       9.240412462021
       253    1        2.000608076715      51.454922559325       3.465154500000
       254    1        0.000000000000      53.088410453108       4.620205537979
       255    1        0.000000000000      51.454922559325       0.000000000000
       256    1        2.000608076715      53.088410453108       1.155051453798
       257    1        2.000608076715      52.271666506217       5.775257962021
       258    1        0.000000000000      52.271666506217       2.310103462021
       259    1        2.000608076715      51.454922559325      10.395463500000
       260    1        0.000000000000      53.088410453108      11.550514537979
       261    1        0.000000000000      51.454922559325       6.930309000000
       262    1        2.000608076715      53.088410453108       8.085360037979
       263    1        2.000608076715      52.271666506217      12.705566962021
       264    1        0.000000000000      52.271666506217       9.240412462021
       265    1        2.000608076715      53.905154400000       3.465154500000
       266    1        0.000000000000      55.538642293783       4.620205537979
       267    1        0.000000000000      53.905154400000       0.000000000000
       268    1        2.000608076715      55.538642293783       1.155051453798
       269    1        2.000608076715      54.721898346892       5.775257962021
       270    1        0.000000000000      54.721898346892       2.310103462021
       271    1        2.000608076715      53.905154400000      10.395463500000
       272    1        0.000000000000      55.538642293783      11.550514537979
       273    1        0.000000000000      53.905154400000       6.930309000000
       274    1        2.000608076715      55.538642293783       8.085360037979
       275    1        2.000608076715      54.721898346892      12.705566962021
       276    1        0.000000000000      54.721898346892       9.240412462021
       277    1        2.000608076715      56.355386240675       3.465154500000
       278    1        0.000000000000      57.988874134458       4.620205537979
       279    1        0.000000000000      56.355386240675       0.000000000000
       280    1        2.000608076715      57.988874134458       1.155051453798
       281    1        2.000608076715      57.172130187566       5.775257962021
       282    1        0.000000000000      57.172130187566       2.310103462021
       283    1        2.000608076715      56.355386240675      10.395463500000
       284    1        0.000000000000      57.988874134458      11.550514537979
       285    1        0.000000000000      56.355386240675       6.930309000000
       286    1        2.000608076715      57.988874134458       8.085360037979
       287    1        2.000608076715      57.172130187566      12.705566962021
       288    1        0.000000000000      57.172130187566       9.240412462021
       289    1        2.000608076715      58.805618081350       3.465154500000
       290    1        0.000000000000      60.439105975133       4.620205537979
       291    1        0.000000000000      58.805618081350       0.000000000000
       292    1        2.000608076715      60.439105975133       1.155051453798
       293    1        2.000608076715      59.622362028241       5.775257962021
       294    1        0.000000000000      59.622362028241       2.310103462021
       295    1        2.000608076715      58.805618081350      10.395463500000
       296    1        0.000000000000      60.439105975133      11.550514537979
       297    1        0.000000000000      58.805618081350       6.930309000000
       298    1        2.000608076715      60.439105975133       8.085360037979
       299    1        2.000608076715      59.622362028241      12.705566962021
       300    1        0.000000000000      59.622362028241       9.240412462021
       301    1        2.000608076715      61.255863398313       3.465154500000
       302    1        0.000000000000      62.889351292096       4.620205537979
       303    1        0.000000000000      61.255863398313       0.000000000000
       304    1        2.000608076715      62.889351292096       1.155051453798
       305    1        2.000608076715      62.072607345205       5.775257962021
       306    1        0.000000000000      62.072607345205       2.310103462021
       307    1        2.000608076715      61.255863398313      10.395463500000
       308    1        0.000000000000      62.889351292096      11.550514537979
       309    1        0.000000000000      61.255863398313       6.930309000000
       310    1        2.000608076715      62.889351292096       8.085360037979
       311    1        2.000608076715      62.072607345205      12.705566962021
       312    1        0.000000000000      62.072607345205       9.240412462021
       313    1        2.000608076715      63.706095238988       3.465154500000
       314    1        0.000000000000      63.706095238988       0.000000000000
       315    1        2.000608076715      63.706095238988      10.395463500000
       316    1        0.000000000000      63.706095238988       6.930309000000
       317    1        2.000608076715      71.056790761012       3.465154500000
       318    1        0.000000000000      72.690278654795       4.620205537979
       319    1        0.000000000000      71.056790761012       0.000000000000
       320    1        2.000608076715      72.690278654795       1.155051453798
       321    1        2.000608076715      71.873534707904       5.775257962021
       322    1        0.000000000000      71.873534707904       2.310103462021
       323    1        2.000608076715      71.056790761012      10.395463500000
       324    1        0.000000000000      72.690278654795      11.550514537979
       325    1        0.000000000000      71.056790761012       6.930309000000
       326    1        2.000608076715      72.690278654795       8.085360037979
       327    1        2.000608076715      71.873534707904      12.705566962021
       328    1        0.000000000000      71.873534707904       9.240412462021
       329    1        2.000608076715      73.507022601687       3.465154500000
       330    1        0.000000000000      75.140523971759       4.620205537979
       331    1        0.000000000000      73.507022601687       0.000000000000
       332    1        2.000608076715      75.140523971759       1.155051453798
       333    1        2.000608076715      74.323780024867       5.775257962021
       334    1        0.000000000000      74.323780024867       2.310103462021
       335    1        2.000608076715      73.507022601687      10.395463500000
       336    1        0.000000000000      75.140523971759      11.550514537979
       337    1        0.000000000000      73.507022601687       6.930309000000
       338    1        2.000608076715      75.140523971759       8.085360037979
       339    1        2.000608076715      74.323780024867      12.705566962021
       340    1        0.000000000000      74.323780024867       9.240412462021
       341    1        2.000608076715      75.957267918650       3.465154500000
       342    1        0.000000000000      77.590755812434       4.620205537979
       343    1        0.000000000000      75.957267918650       0.000000000000
       344    1        2.000608076715      77.590755812434       1.155051453798
       345    1        2.000608076715      76.774011865542       5.775257962021
       346    1        0.000000000000      76.774011865542       2.310103462021
       347    1        2.000608076715      75.957267918650      10.395463500000
       348    1        0.000000000000      77.590755812434      11.550514537979
       349    1        0.000000000000      75.957267918650       6.930309000000
       350    1        2.000608076715      77.590755812434       8.085360037979
       351    1        2.000608076715      76.774011865542      12.705566962021
       352    1        0.000000000000      76.774011865542       9.240412462021
       353    1        2.000608076715      78.407499759325       3.465154500000
       354    1        0.000000000000      80.040987653108       4.620205537979
       355    1        0.000000000000      78.407499759325       0.000000000000
       356    1        2.000608076715      80.040987653108       1.155051453798
       357    1        2.000608076715      79.224243706217       5.775257962021
       358    1        0.000000000000      79.224243706217       2.310103462021
       359    1        2.000608076715      78.407499759325      10.395463500000
       360    1        0.000000000000      80.040987653108      11.550514537979
       361    1        0.000000000000      78.407499759325       6.930309000000
       362    1        2.000608076715      80.040987653108       8.085360037979
       363    1        2.000608076715      79.224243706217      12.705566962021
       364    1        0.000000000000      79.224243706217       9.240412462021
       365    1        2.000608076715      80.857731600000       3.465154500000
       366    1        0.000000000000      82.491219493783       4.620205537979
       367    1        0.000000000000      80.857731600000       0.000000000000
       368    1        2.000608076715      82.491219493783       1.155051453798
       369    1        2.000608076715      81.674475546892       5.775257962021
       370    1        0.000000000000      81.674475546892       2.310103462021