 # File generated with Atomsk by user on 2025-02-06 12:28:16
  
       23529  atoms
           2  atom types
 
      0.000000000000     132.021885000000  xlo xhi
      0.000000000000     134.762886000000  ylo yhi
      0.000000000000      27.721236000000  zlo zhi
 
Masses
 
            1   55.84500000             # Fe
            2   1.00800000              # H
 
Atoms # atomic
 
         1    1       32.646051594054       0.414110091856       4.043658811822
         2    1       30.645443517339       2.047599333268       5.198708463739
         3    1       30.645443517339       0.414110091856       0.578504311822
         4    1       32.646051594054       2.047599333268       1.733555904226
         5    1       32.646051594054       1.230855386376       6.353760887780
         6    1       30.645443517339       1.230855386376       2.888607773842
         7    1       32.646051594054       0.414110091856      10.973967811822
         8    1       30.645443517339       2.047599333268      12.129020235863
         9    1       30.645443517339       0.414110091856       7.508813311822
        10    1       32.646051594054       2.047599333268       8.663865735863
        11    1       32.646051594054       1.230855386376      13.284069887780
        12    1       30.645443517339       1.230855386376       9.818915387780
        13    1       32.646051594054       2.864344627788       4.043658811822
        14    1       30.645443517339       4.497833869201       5.198708463739
        15    1       30.645443517339       2.864344627788       0.578504311822
        16    1       32.646051594054       4.497833869201       1.733555904226
        17    1       32.646051594054       3.681088574680       6.353760887780
        18    1       30.645443517339       3.681088574680       2.888607773842
        19    1       32.646051594054       2.864344627788      10.973967811822
        20    1       30.645443517339       4.497833869201      12.129020235863
        21    1       30.645443517339       2.864344627788       7.508813311822
        22    1       32.646051594054       4.497833869201       8.663865735863
        23    1       32.646051594054       3.681088574680      13.284069887780
        24    1       30.645443517339       3.681088574680       9.818915387780
        25    1       32.646051594054       5.314579163721       4.043658811822
        26    1       30.645443517339       6.948068405133       5.198708463739
        27    1       30.645443517339       5.314579163721       0.578504311822
        28    1       32.646051594054       6.948068405133       1.733555904226
        29    1       32.646051594054       6.131323110613       6.353760887780
        30    1       30.645443517339       6.131323110613       2.888607773842
        31    1       32.646051594054       5.314579163721      10.973967811822
        32    1       30.645443517339       6.948068405133      12.129020235863
        33    1       30.645443517339       5.314579163721       7.508813311822
        34    1       32.646051594054       6.948068405133       8.663865735863
        35    1       32.646051594054       6.131323110613      13.284069887780
        36    1       30.645443517339       6.131323110613       9.818915387780
        37    1       32.646051594054       7.764812352025       4.043658811822
        38    1       30.645443517339       9.398302941066       5.198708463739
        39    1       30.645443517339       7.764812352025       0.578504311822
        40    1       32.646051594054       9.398302941066       1.733555904226
        41    1       32.646051594054       8.581557646545       6.353760887780
        42    1       30.645443517339       8.581557646545       2.888607773842
        43    1       32.646051594054       7.764812352025      10.973967811822
        44    1       30.645443517339       9.398302941066      12.129020235863
        45    1       30.645443517339       7.764812352025       7.508813311822
        46    1       32.646051594054       9.398302941066       8.663865735863
        47    1       32.646051594054       8.581557646545      13.284069887780
        48    1       30.645443517339       8.581557646545       9.818915387780
        49    1       32.646051594054      10.215046887957       4.043658811822
        50    1       30.645443517339      11.848536129369       5.198708463739
        51    1       30.645443517339      10.215046887957       0.578504311822
        52    1       32.646051594054      11.848536129369       1.733555904226
        53    1       32.646051594054      11.031792182478       6.353760887780
        54    1       30.645443517339      11.031792182478       2.888607773842
        55    1       32.646051594054      10.215046887957      10.973967811822
        56    1       30.645443517339      11.848536129369      12.129020235863
        57    1       30.645443517339      10.215046887957       7.508813311822
        58    1       32.646051594054      11.848536129369       8.663865735863
        59    1       32.646051594054      11.031792182478      13.284069887780
        60    1       30.645443517339      11.031792182478       9.818915387780
        61    1       32.646051594054      12.665281423890       4.043658811822
        62    1       30.645443517339      14.298770665302       5.198708463739
        63    1       30.645443517339      12.665281423890       0.578504311822
        64    1       32.646051594054      14.298770665302       1.733555904226
        65    1       32.646051594054      13.482026718410       6.353760887780
        66    1       30.645443517339      13.482026718410       2.888607773842
        67    1       32.646051594054      12.665281423890      10.973967811822
        68    1       30.645443517339      14.298770665302      12.129020235863
        69    1       30.645443517339      12.665281423890       7.508813311822
        70    1       32.646051594054      14.298770665302       8.663865735863
        71    1       32.646051594054      13.482026718410      13.284069887780
        72    1       30.645443517339      13.482026718410       9.818915387780
        73    1       32.646051594054      15.115514612193       4.043658811822
        74    1       30.645443517339      16.749002505977       5.198708463739
        75    1       30.645443517339      15.115514612193       0.578504311822
        76    1       32.646051594054      16.749002505977       1.733555904226
        77    1       32.646051594054      15.932258559085       6.353760887780
        78    1       30.645443517339      15.932258559085       2.888607773842
        79    1       32.646051594054      15.115514612193      10.973967811822
        80    1       30.645443517339      16.749002505977      12.129020235863
        81    1       30.645443517339      15.115514612193       7.508813311822
        82    1       32.646051594054      16.749002505977       8.663865735863
        83    1       32.646051594054      15.932258559085      13.284069887780
        84    1       30.645443517339      15.932258559085       9.818915387780
        85    1       32.646051594054      17.565746452868       4.043658811822
        86    1       30.645443517339      19.199234346651       5.198708463739
        87    1       30.645443517339      17.565746452868       0.578504311822
        88    1       32.646051594054      19.199234346651       1.733555904226
        89    1       32.646051594054      18.382490399760       6.353760887780
        90    1       30.645443517339      18.382490399760       2.888607773842
        91    1       32.646051594054      17.565746452868      10.973967811822
        92    1       30.645443517339      19.199234346651      12.129020235863
        93    1       30.645443517339      17.565746452868       7.508813311822
        94    1       32.646051594054      19.199234346651       8.663865735863
        95    1       32.646051594054      18.382490399760      13.284069887780
        96    1       30.645443517339      18.382490399760       9.818915387780
        97    1       32.646051594054      20.015978293543       4.043658811822
        98    1       30.645443517339      21.649479663615       5.198708463739
        99    1       30.645443517339      20.015978293543       0.578504311822
       100    1       32.646051594054      21.649479663615       1.733555904226
       101    1       32.646051594054      20.832735716723       6.353760887780
       102    1       30.645443517339      20.832735716723       2.888607773842
       103    1       32.646051594054      20.015978293543      10.973967811822
       104    1       30.645443517339      21.649479663615      12.129020235863
       105    1       30.645443517339      20.015978293543       7.508813311822
       106    1       32.646051594054      21.649479663615       8.663865735863
       107    1       32.646051594054      20.832735716723      13.284069887780
       108    1       30.645443517339      20.832735716723       9.818915387780
       109    1       32.646051594054      22.466223610506       4.043658811822
       110    1       30.645443517339      24.099711504290       5.198708463739
       111    1       30.645443517339      22.466223610506       0.578504311822
       112    1       32.646051594054      24.099711504290       1.733555904226
       113    1       32.646051594054      23.282967557398       6.353760887780
       114    1       30.645443517339      23.282967557398       2.888607773842
       115    1       32.646051594054      22.466223610506      10.973967811822
       116    1       30.645443517339      24.099711504290      12.129020235863
       117    1       30.645443517339      22.466223610506       7.508813311822
       118    1       32.646051594054      24.099711504290       8.663865735863
       119    1       32.646051594054      23.282967557398      13.284069887780
       120    1       30.645443517339      23.282967557398       9.818915387780
       121    1       32.646051594054      24.916455451181       4.043658811822
       122    1       30.645443517339      26.549943344964       5.198708463739
       123    1       30.645443517339      24.916455451181       0.578504311822
       124    1       32.646051594054      26.549943344964       1.733555904226
       125    1       32.646051594054      25.733199398073       6.353760887780
       126    1       30.645443517339      25.733199398073       2.888607773842
       127    1       32.646051594054      24.916455451181      10.973967811822
       128    1       30.645443517339      26.549943344964      12.129020235863
       129    1       30.645443517339      24.916455451181       7.508813311822
       130    1       32.646051594054      26.549943344964       8.663865735863
       131    1       32.646051594054      25.733199398073      13.284069887780
       132    1       30.645443517339      25.733199398073       9.818915387780
       133    1       32.646051594054      27.366687291856       4.043658811822
       134    1       30.645443517339      29.000175185639       5.198708463739
       135    1       30.645443517339      27.366687291856       0.578504311822
       136    1       32.646051594054      29.000175185639       1.733555904226
       137    1       32.646051594054      28.183431238748       6.353760887780
       138    1       30.645443517339      28.183431238748       2.888607773842
       139    1       32.646051594054      27.366687291856      10.973967811822
       140    1       30.645443517339      29.000175185639      12.129020235863
       141    1       30.645443517339      27.366687291856       7.508813311822
       142    1       32.646051594054      29.000175185639       8.663865735863
       143    1       32.646051594054      28.183431238748      13.284069887780
       144    1       30.645443517339      28.183431238748       9.818915387780
       145    1       32.646051594054      29.816919132531       4.043658811822
       146    1       30.645443517339      31.450407026314       5.198708463739
       147    1       30.645443517339      29.816919132531       0.578504311822
       148    1       32.646051594054      31.450407026314       1.733555904226
       149    1       32.646051594054      30.633663079422       6.353760887780
       150    1       30.645443517339      30.633663079422       2.888607773842
       151    1       32.646051594054      29.816919132531      10.973967811822
       152    1       30.645443517339      31.450407026314      12.129020235863
       153    1       30.645443517339      29.816919132531       7.508813311822
       154    1       32.646051594054      31.450407026314       8.663865735863
       155    1       32.646051594054      30.633663079422      13.284069887780
       156    1       30.645443517339      30.633663079422       9.818915387780
       157    1       32.646051594054      32.267150973206       4.043658811822
       158    1       30.645443517339      33.900638866989       5.198708463739
       159    1       30.645443517339      32.267150973206       0.578504311822
       160    1       32.646051594054      33.900638866989       1.733555904226
       161    1       32.646051594054      33.083894920097       6.353760887780
       162    1       30.645443517339      33.083894920097       2.888607773842
       163    1       32.646051594054      32.267150973206      10.973967811822
       164    1       30.645443517339      33.900638866989      12.129020235863
       165    1       30.645443517339      32.267150973206       7.508813311822
       166    1       32.646051594054      33.900638866989       8.663865735863
       167    1       32.646051594054      33.083894920097      13.284069887780
       168    1       30.645443517339      33.083894920097       9.818915387780
       169    1       32.646051594054      34.717396290169       4.043658811822
       170    1       30.645443517339      36.350884183952       5.198708463739
       171    1       30.645443517339      34.717396290169       0.578504311822
       172    1       32.646051594054      36.350884183952       1.733555904226
       173    1       32.646051594054      35.534140237061       6.353760887780
       174    1       30.645443517339      35.534140237061       2.888607773842
       175    1       32.646051594054      34.717396290169      10.973967811822
       176    1       30.645443517339      36.350884183952      12.129020235863
       177    1       30.645443517339      34.717396290169       7.508813311822
       178    1       32.646051594054      36.350884183952       8.663865735863
       179    1       32.646051594054      35.534140237061      13.284069887780
       180    1       30.645443517339      35.534140237061       9.818915387780
       181    1       32.646051594054      37.167628130844       4.043658811822
       182    1       30.645443517339      38.801116024627       5.198708463739
       183    1       30.645443517339      37.167628130844       0.578504311822
       184    1       32.646051594054      38.801116024627       1.733555904226
       185    1       32.646051594054      37.984372077735       6.353760887780
       186    1       30.645443517339      37.984372077735       2.888607773842
       187    1       32.646051594054      37.167628130844      10.973967811822
       188    1       30.645443517339      38.801116024627      12.129020235863
       189    1       30.645443517339      37.167628130844       7.508813311822
       190    1       32.646051594054      38.801116024627       8.663865735863
       191    1       32.646051594054      37.984372077735      13.284069887780
       192    1       30.645443517339      37.984372077735       9.818915387780
       193    1       32.646051594054      39.617859971519       4.043658811822
       194    1       30.645443517339      41.251347865302       5.198708463739
       195    1       30.645443517339      39.617859971519       0.578504311822
       196    1       32.646051594054      41.251347865302       1.733555904226
       197    1       32.646051594054      40.434603918410       6.353760887780
       198    1       30.645443517339      40.434603918410       2.888607773842
       199    1       32.646051594054      39.617859971519      10.973967811822
       200    1       30.645443517339      41.251347865302      12.129020235863
       201    1       30.645443517339      39.617859971519       7.508813311822
       202    1       32.646051594054      41.251347865302       8.663865735863
       203    1       32.646051594054      40.434603918410      13.284069887780
       204    1       30.645443517339      40.434603918410       9.818915387780
       205    1       32.646051594054      42.068091812193       4.043658811822
       206    1       30.645443517339      43.701579705977       5.198708463739
       207    1       30.645443517339      42.068091812193       0.578504311822
       208    1       32.646051594054      43.701579705977       1.733555904226
       209    1       32.646051594054      42.884835759085       6.353760887780
       210    1       30.645443517339      42.884835759085       2.888607773842
       211    1       32.646051594054      42.068091812193      10.973967811822
       212    1       30.645443517339      43.701579705977      12.129020235863
       213    1       30.645443517339      42.068091812193       7.508813311822
       214    1       32.646051594054      43.701579705977       8.663865735863
       215    1       32.646051594054      42.884835759085      13.284069887780
       216    1       30.645443517339      42.884835759085       9.818915387780
       217    1       32.646051594054      44.518323652868       4.043658811822
       218    1       30.645443517339      46.151811546651       5.198708463739
       219    1       30.645443517339      44.518323652868       0.578504311822
       220    1       32.646051594054      46.151811546651       1.733555904226
       221    1       32.646051594054      45.335067599760       6.353760887780
       222    1       30.645443517339      45.335067599760       2.888607773842
       223    1       32.646051594054      44.518323652868      10.973967811822
       224    1       30.645443517339      46.151811546651      12.129020235863
       225    1       30.645443517339      44.518323652868       7.508813311822
       226    1       32.646051594054      46.151811546651       8.663865735863
       227    1       32.646051594054      45.335067599760      13.284069887780
       228    1       30.645443517339      45.335067599760       9.818915387780
       229    1       32.646051594054      46.968555493543       4.043658811822
       230    1       30.645443517339      48.602056863615       5.198708463739
       231    1       30.645443517339      46.968555493543       0.578504311822
       232    1       32.646051594054      48.602056863615       1.733555904226
       233    1       32.646051594054      47.785312916723       6.353760887780
       234    1       30.645443517339      47.785312916723       2.888607773842
       235    1       32.646051594054      46.968555493543      10.973967811822
       236    1       30.645443517339      48.602056863615      12.129020235863
       237    1       30.645443517339      46.968555493543       7.508813311822
       238    1       32.646051594054      48.602056863615       8.663865735863
       239    1       32.646051594054      47.785312916723      13.284069887780
       240    1       30.645443517339      47.785312916723       9.818915387780
       241    1       32.646051594054      49.418800810506       4.043658811822
       242    1       30.645443517339      51.052288704290       5.198708463739
       243    1       30.645443517339      49.418800810506       0.578504311822
       244    1       32.646051594054      51.052288704290       1.733555904226
       245    1       32.646051594054      50.235544757398       6.353760887780
       246    1       30.645443517339      50.235544757398       2.888607773842
       247    1       32.646051594054      49.418800810506      10.973967811822
       248    1       30.645443517339      51.052288704290      12.129020235863
       249    1       30.645443517339      49.418800810506       7.508813311822
       250    1       32.646051594054      51.052288704290       8.663865735863
       251    1       32.646051594054      50.235544757398      13.284069887780
       252    1       30.645443517339      50.235544757398       9.818915387780
       253    1       32.646051594054      51.869032651181       4.043658811822
       254    1       30.645443517339      53.502520544964       5.198708463739
       255    1       30.645443517339      51.869032651181       0.578504311822
       256    1       32.646051594054      53.502520544964       1.733555904226
       257    1       32.646051594054      52.685776598073       6.353760887780
       258    1       30.645443517339      52.685776598073       2.888607773842
       259    1       32.646051594054      51.869032651181      10.973967811822
       260    1       30.645443517339      53.502520544964      12.129020235863
       261    1       30.645443517339      51.869032651181       7.508813311822
       262    1       32.646051594054      53.502520544964       8.663865735863
       263    1       32.646051594054      52.685776598073      13.284069887780
       264    1       30.645443517339      52.685776598073       9.818915387780
       265    1       32.646051594054      54.319264491856       4.043658811822
       266    1       30.645443517339      55.952752385639       5.198708463739
       267    1       30.645443517339      54.319264491856       0.578504311822
       268    1       32.646051594054      55.952752385639       1.733555904226
       269    1       32.646051594054      55.136008438748       6.353760887780
       270    1       30.645443517339      55.136008438748       2.888607773842
       271    1       32.646051594054      54.319264491856      10.973967811822
       272    1       30.645443517339      55.952752385639      12.129020235863
       273    1       30.645443517339      54.319264491856       7.508813311822
       274    1       32.646051594054      55.952752385639       8.663865735863
       275    1       32.646051594054      55.136008438748      13.284069887780
       276    1       30.645443517339      55.136008438748       9.818915387780
       277    1       32.646051594054      56.769496332531       4.043658811822
       278    1       30.645443517339      58.402984226314       5.198708463739
       279    1       30.645443517339      56.769496332531       0.578504311822
       280    1       32.646051594054      58.402984226314       1.733555904226
       281    1       32.646051594054      57.586240279422       6.353760887780
       282    1       30.645443517339      57.586240279422       2.888607773842
       283    1       32.646051594054      56.769496332531      10.973967811822
       284    1       30.645443517339      58.402984226314      12.129020235863
       285    1       30.645443517339      56.769496332531       7.508813311822
       286    1       32.646051594054      58.402984226314       8.663865735863
       287    1       32.646051594054      57.586240279422      13.284069887780
       288    1       30.645443517339      57.586240279422       9.818915387780
       289    1       32.646051594054      59.219728173206       4.043658811822
       290    1       30.645443517339      60.853216066989       5.198708463739
       291    1       30.645443517339      59.219728173206       0.578504311822
       292    1       32.646051594054      60.853216066989       1.733555904226
       293    1       32.646051594054      60.036472120097       6.353760887780
       294    1       30.645443517339      60.036472120097       2.888607773842
       295    1       32.646051594054      59.219728173206      10.973967811822
       296    1       30.645443517339      60.853216066989      12.129020235863
       297    1       30.645443517339      59.219728173206       7.508813311822
       298    1       32.646051594054      60.853216066989       8.663865735863
       299    1       32.646051594054      60.036472120097      13.284069887780
       300    1       30.645443517339      60.036472120097       9.818915387780
       301    1       32.646051594054      61.669973490169       4.043658811822
       302    1       30.645443517339      63.303461383952       5.198708463739
       303    1       30.645443517339      61.669973490169       0.578504311822
       304    1       32.646051594054      63.303461383952       1.733555904226
       305    1       32.646051594054      62.486717437061       6.353760887780
       306    1       30.645443517339      62.486717437061       2.888607773842
       307    1       32.646051594054      61.669973490169      10.973967811822
       308    1       30.645443517339      63.303461383952      12.129020235863
       309    1       30.645443517339      61.669973490169       7.508813311822
       310    1       32.646051594054      63.303461383952       8.663865735863
       311    1       32.646051594054      62.486717437061      13.284069887780
       312    1       30.645443517339      62.486717437061       9.818915387780
       313    1       32.646051594054      64.120205330844       4.043658811822
       314    1       30.645443517339      64.120205330844       0.578504311822
       315    1       32.646051594054      64.120205330844      10.973967811822
       316    1       30.645443517339      64.120205330844       7.508813311822
       317    1       32.646051594054      71.470900852868       4.043658811822
       318    1       30.645443517339      73.104388746651       5.198708463739
       319    1       30.645443517339      71.470900852868       0.578504311822
       320    1       32.646051594054      73.104388746651       1.733555904226
       321    1       32.646051594054      72.287644799760       6.353760887780
       322    1       30.645443517339      72.287644799760       2.888607773842
       323    1       32.646051594054      71.470900852868      10.973967811822
       324    1       30.645443517339      73.104388746651      12.129020235863
       325    1       30.645443517339      71.470900852868       7.508813311822
       326    1       32.646051594054      73.104388746651       8.663865735863
       327    1       32.646051594054      72.287644799760      13.284069887780
       328    1       30.645443517339      72.287644799760       9.818915387780
       329    1       32.646051594054      73.921132693543       4.043658811822
       330    1       30.645443517339      75.554634063615       5.198708463739
       331    1       30.645443517339      73.921132693543       0.578504311822
       332    1       32.646051594054      75.554634063615       1.733555904226
       333    1       32.646051594054      74.737890116723       6.353760887780
       334    1       30.645443517339      74.737890116723       2.888607773842
       335    1       32.646051594054      73.921132693543      10.973967811822
       336    1       30.645443517339      75.554634063615      12.129020235863
       337    1       30.645443517339      73.921132693543       7.508813311822
       338    1       32.646051594054      75.554634063615       8.663865735863
       339    1       32.646051594054      74.737890116723      13.284069887780
       340    1       30.645443517339      74.737890116723       9.818915387780
       341    1       32.646051594054      76.371378010506       4.043658811822
       342    1       30.645443517339      78.004865904290       5.198708463739
       343    1       30.645443517339      76.371378010506       0.578504311822
       344    1       32.646051594054      78.004865904290       1.733555904226
       345    1       32.646051594054      77.188121957398       6.353760887780
       346    1       30.645443517339      77.188121957398       2.888607773842
       347    1       32.646051594054      76.371378010506      10.973967811822
       348    1       30.645443517339      78.004865904290      12.129020235863
       349    1       30.645443517339      76.371378010506       7.508813311822
       350    1       32.646051594054      78.004865904290       8.663865735863
       351    1       32.646051594054      77.188121957398      13.284069887780
       352    1       30.645443517339      77.188121957398       9.818915387780
       353    1       32.646051594054      78.821609851181       4.043658811822
       354    1       30.645443517339      80.455097744964       5.198708463739
       355    1       30.645443517339      78.821609851181       0.578504311822
       356    1       32.646051594054      80.455097744964       1.733555904226
       357    1       32.646051594054      79.638353798073       6.353760887780
       358    1       30.645443517339      79.638353798073       2.888607773842
       359    1       32.646051594054      78.821609851181      10.973967811822
       360    1       30.645443517339      80.455097744964      12.129020235863
       361    1       30.645443517339      78.821609851181       7.508813311822
       362    1       32.646051594054      80.455097744964       8.663865735863
       363    1       32.646051594054      79.638353798073      13.284069887780
       364    1       30.645443517339      79.638353798073       9.818915387780
       365    1       32.646051594054      81.271841691856       4.043658811822
       366    1       30.645443517339      82.905329585639       5.198708463739
       367    1       30.645443517339      81.271841691856       0.578504311822
       368    1       32.646051594054      82.905329585639       1.733555904226
       369    1       32.646051594054      82.088585638748       6.353760887780
       370    1       30.645443517339      82.088585638748       2.888607773842