 # File generated with Atomsk by user on 2025-03-12 14:27:16
  
       21219  atoms
           2  atom types
 
      0.000000000000     139.220032000000  xlo xhi
      0.000000000000     135.805769000000  ylo yhi
      0.000000000000      22.634294000000  zlo zhi
 
Masses
 
            1   55.84500000             # Fe
            2   1.00800000              # H
 
Atoms # atomic
 
         1    1       30.297867541845       0.717417245634       0.705743674084
         2    1       31.712510744073       2.132061125403       2.120387049084
         3    1       30.297867541845       0.717417245634       3.535030424084
         4    1       31.712510744073       2.132061125403       4.949673799084
         5    1       30.297867541845       0.717417245634       6.364317174084
         6    1       31.712510744073       2.132061125403       7.778960549084
         7    1       30.297867541845       0.717417245634       9.193603924084
         8    1       31.712510744073       2.132061125403      10.608247299084
         9    1       30.297867541845       3.546703647115       0.705743674084
        10    1       31.712510744073       4.961347526884       2.120387049084
        11    1       30.297867541845       3.546703647115       3.535030424084
        12    1       31.712510744073       4.961347526884       4.949673799084
        13    1       30.297867541845       3.546703647115       6.364317174084
        14    1       31.712510744073       4.961347526884       7.778960549084
        15    1       30.297867541845       3.546703647115       9.193603924084
        16    1       31.712510744073       4.961347526884      10.608247299084
        17    1       30.297867541845       6.375991406653       0.705743674084
        18    1       31.712510744073       7.790633928365       2.120387049084
        19    1       30.297867541845       6.375991406653       3.535030424084
        20    1       31.712510744073       7.790633928365       4.949673799084
        21    1       30.297867541845       6.375991406653       6.364317174084
        22    1       31.712510744073       7.790633928365       7.778960549084
        23    1       30.297867541845       6.375991406653       9.193603924084
        24    1       31.712510744073       7.790633928365      10.608247299084
        25    1       30.297867541845       9.205277808134       0.705743674084
        26    1       31.712510744073      10.619921687903       2.120387049084
        27    1       30.297867541845       9.205277808134       3.535030424084
        28    1       31.712510744073      10.619921687903       4.949673799084
        29    1       30.297867541845       9.205277808134       6.364317174084
        30    1       31.712510744073      10.619921687903       7.778960549084
        31    1       30.297867541845       9.205277808134       9.193603924084
        32    1       31.712510744073      10.619921687903      10.608247299084
        33    1       30.297867541845      12.034564209615       0.705743674084
        34    1       31.712510744073      13.449208089384       2.120387049084
        35    1       30.297867541845      12.034564209615       3.535030424084
        36    1       31.712510744073      13.449208089384       4.949673799084
        37    1       30.297867541845      12.034564209615       6.364317174084
        38    1       31.712510744073      13.449208089384       7.778960549084
        39    1       30.297867541845      12.034564209615       9.193603924084
        40    1       31.712510744073      13.449208089384      10.608247299084
        41    1       30.297867541845      14.863856043326       0.705743674084
        42    1       31.712510744073      16.278490416692       2.120387049084
        43    1       30.297867541845      14.863856043326       3.535030424084
        44    1       31.712510744073      16.278490416692       4.949673799084
        45    1       30.297867541845      14.863856043326       6.364317174084
        46    1       31.712510744073      16.278490416692       7.778960549084
        47    1       30.297867541845      14.863856043326       9.193603924084
        48    1       31.712510744073      16.278490416692      10.608247299084
        49    1       30.297867541845      17.693138370634       0.705743674084
        50    1       31.712510744073      19.107786324576       2.120387049084
        51    1       30.297867541845      17.693138370634       3.535030424084
        52    1       31.712510744073      19.107786324576       4.949673799084
        53    1       30.297867541845      17.693138370634       6.364317174084
        54    1       31.712510744073      19.107786324576       7.778960549084
        55    1       30.297867541845      17.693138370634       9.193603924084
        56    1       31.712510744073      19.107786324576      10.608247299084
        57    1       30.297867541845      20.522420697942       0.705743674084
        58    1       31.712510744073      21.937068651884       2.120387049084
        59    1       30.297867541845      20.522420697942       3.535030424084
        60    1       31.712510744073      21.937068651884       4.949673799084
        61    1       30.297867541845      20.522420697942       6.364317174084
        62    1       31.712510744073      21.937068651884       7.778960549084
        63    1       30.297867541845      20.522420697942       9.193603924084
        64    1       31.712510744073      21.937068651884      10.608247299084
        65    1       30.297867541845      23.351716605826       0.705743674084
        66    1       31.712510744073      24.766350979192       2.120387049084
        67    1       30.297867541845      23.351716605826       3.535030424084
        68    1       31.712510744073      24.766350979192       4.949673799084
        69    1       30.297867541845      23.351716605826       6.364317174084
        70    1       31.712510744073      24.766350979192       7.778960549084
        71    1       30.297867541845      23.351716605826       9.193603924084
        72    1       31.712510744073      24.766350979192      10.608247299084
        73    1       30.297867541845      26.180998933134       0.705743674084
        74    1       31.712510744073      27.595646887076       2.120387049084
        75    1       30.297867541845      26.180998933134       3.535030424084
        76    1       31.712510744073      27.595646887076       4.949673799084
        77    1       30.297867541845      26.180998933134       6.364317174084
        78    1       31.712510744073      27.595646887076       7.778960549084
        79    1       30.297867541845      26.180998933134       9.193603924084
        80    1       31.712510744073      27.595646887076      10.608247299084
        81    1       30.297867541845      29.010281260442       0.705743674084
        82    1       31.712510744073      30.424929214384       2.120387049084
        83    1       30.297867541845      29.010281260442       3.535030424084
        84    1       31.712510744073      30.424929214384       4.949673799084
        85    1       30.297867541845      29.010281260442       6.364317174084
        86    1       31.712510744073      30.424929214384       7.778960549084
        87    1       30.297867541845      29.010281260442       9.193603924084
        88    1       31.712510744073      30.424929214384      10.608247299084
        89    1       30.297867541845      31.839577168326       0.705743674084
        90    1       31.712510744073      33.254211541692       2.120387049084
        91    1       30.297867541845      31.839577168326       3.535030424084
        92    1       31.712510744073      33.254211541692       4.949673799084
        93    1       30.297867541845      31.839577168326       6.364317174084
        94    1       31.712510744073      33.254211541692       7.778960549084
        95    1       30.297867541845      31.839577168326       9.193603924084
        96    1       31.712510744073      33.254211541692      10.608247299084
        97    1       30.297867541845      34.668859495634       0.705743674084
        98    1       31.712510744073      36.083507449576       2.120387049084
        99    1       30.297867541845      34.668859495634       3.535030424084
       100    1       31.712510744073      36.083507449576       4.949673799084
       101    1       30.297867541845      34.668859495634       6.364317174084
       102    1       31.712510744073      36.083507449576       7.778960549084
       103    1       30.297867541845      34.668859495634       9.193603924084
       104    1       31.712510744073      36.083507449576      10.608247299084
       105    1       30.297867541845      37.498141822942       0.705743674084
       106    1       31.712510744073      38.912789776884       2.120387049084
       107    1       30.297867541845      37.498141822942       3.535030424084
       108    1       31.712510744073      38.912789776884       4.949673799084
       109    1       30.297867541845      37.498141822942       6.364317174084
       110    1       31.712510744073      38.912789776884       7.778960549084
       111    1       30.297867541845      37.498141822942       9.193603924084
       112    1       31.712510744073      38.912789776884      10.608247299084
       113    1       30.297867541845      40.327437730826       0.705743674084
       114    1       31.712510744073      41.742072104192       2.120387049084
       115    1       30.297867541845      40.327437730826       3.535030424084
       116    1       31.712510744073      41.742072104192       4.949673799084
       117    1       30.297867541845      40.327437730826       6.364317174084
       118    1       31.712510744073      41.742072104192       7.778960549084
       119    1       30.297867541845      40.327437730826       9.193603924084
       120    1       31.712510744073      41.742072104192      10.608247299084
       121    1       30.297867541845      43.156720058134       0.705743674084
       122    1       31.712510744073      44.571368012076       2.120387049084
       123    1       30.297867541845      43.156720058134       3.535030424084
       124    1       31.712510744073      44.571368012076       4.949673799084
       125    1       30.297867541845      43.156720058134       6.364317174084
       126    1       31.712510744073      44.571368012076       7.778960549084
       127    1       30.297867541845      43.156720058134       9.193603924084
       128    1       31.712510744073      44.571368012076      10.608247299084
       129    1       30.297867541845      45.986002385442       0.705743674084
       130    1       31.712510744073      47.400650339384       2.120387049084
       131    1       30.297867541845      45.986002385442       3.535030424084
       132    1       31.712510744073      47.400650339384       4.949673799084
       133    1       30.297867541845      45.986002385442       6.364317174084
       134    1       31.712510744073      47.400650339384       7.778960549084
       135    1       30.297867541845      45.986002385442       9.193603924084
       136    1       31.712510744073      47.400650339384      10.608247299084
       137    1       30.297867541845      48.815298293326       0.705743674084
       138    1       31.712510744073      50.229932666692       2.120387049084
       139    1       30.297867541845      48.815298293326       3.535030424084
       140    1       31.712510744073      50.229932666692       4.949673799084
       141    1       30.297867541845      48.815298293326       6.364317174084
       142    1       31.712510744073      50.229932666692       7.778960549084
       143    1       30.297867541845      48.815298293326       9.193603924084
       144    1       31.712510744073      50.229932666692      10.608247299084
       145    1       30.297867541845      51.644580620634       0.705743674084
       146    1       31.712510744073      53.059228574576       2.120387049084
       147    1       30.297867541845      51.644580620634       3.535030424084
       148    1       31.712510744073      53.059228574576       4.949673799084
       149    1       30.297867541845      51.644580620634       6.364317174084
       150    1       31.712510744073      53.059228574576       7.778960549084
       151    1       30.297867541845      51.644580620634       9.193603924084
       152    1       31.712510744073      53.059228574576      10.608247299084
       153    1       30.297867541845      54.473862947942       0.705743674084
       154    1       31.712510744073      55.888510901884       2.120387049084
       155    1       30.297867541845      54.473862947942       3.535030424084
       156    1       31.712510744073      55.888510901884       4.949673799084
       157    1       30.297867541845      54.473862947942       6.364317174084
       158    1       31.712510744073      55.888510901884       7.778960549084
       159    1       30.297867541845      54.473862947942       9.193603924084
       160    1       31.712510744073      55.888510901884      10.608247299084
       161    1       30.297867541845      57.303158855826       0.705743674084
       162    1       31.712510744073      58.717793229192       2.120387049084
       163    1       30.297867541845      57.303158855826       3.535030424084
       164    1       31.712510744073      58.717793229192       4.949673799084
       165    1       30.297867541845      57.303158855826       6.364317174084
       166    1       31.712510744073      58.717793229192       7.778960549084
       167    1       30.297867541845      57.303158855826       9.193603924084
       168    1       31.712510744073      58.717793229192      10.608247299084
       169    1       30.297867541845      60.132441183134       0.705743674084
       170    1       31.712510744073      61.547089137076       2.120387049084
       171    1       30.297867541845      60.132441183134       3.535030424084
       172    1       31.712510744073      61.547089137076       4.949673799084
       173    1       30.297867541845      60.132441183134       6.364317174084
       174    1       31.712510744073      61.547089137076       7.778960549084
       175    1       30.297867541845      60.132441183134       9.193603924084
       176    1       31.712510744073      61.547089137076      10.608247299084
       177    1       30.297867541845      62.961723510442       0.705743674084
       178    1       31.712510744073      64.376371464384       2.120387049084
       179    1       30.297867541845      62.961723510442       3.535030424084
       180    1       31.712510744073      64.376371464384       4.949673799084
       181    1       30.297867541845      62.961723510442       6.364317174084
       182    1       31.712510744073      64.376371464384       7.778960549084
       183    1       30.297867541845      62.961723510442       9.193603924084
       184    1       31.712510744073      64.376371464384      10.608247299084
       185    1       31.712510744073      72.864232026884       2.120387049084
       186    1       31.712510744073      72.864232026884       4.949673799084
       187    1       31.712510744073      72.864232026884       7.778960549084
       188    1       31.712510744073      72.864232026884      10.608247299084
       189    1       30.297867541845      74.278879980826       0.705743674084
       190    1       31.712510744073      75.693514354192       2.120387049084
       191    1       30.297867541845      74.278879980826       3.535030424084
       192    1       31.712510744073      75.693514354192       4.949673799084
       193    1       30.297867541845      74.278879980826       6.364317174084
       194    1       31.712510744073      75.693514354192       7.778960549084
       195    1       30.297867541845      74.278879980826       9.193603924084
       196    1       31.712510744073      75.693514354192      10.608247299084
       197    1       30.297867541845      77.108162308134       0.705743674084
       198    1       31.712510744073      78.522810262076       2.120387049084
       199    1       30.297867541845      77.108162308134       3.535030424084
       200    1       31.712510744073      78.522810262076       4.949673799084
       201    1       30.297867541845      77.108162308134       6.364317174084
       202    1       31.712510744073      78.522810262076       7.778960549084
       203    1       30.297867541845      77.108162308134       9.193603924084
       204    1       31.712510744073      78.522810262076      10.608247299084
       205    1       30.297867541845      79.937444635442       0.705743674084
       206    1       31.712510744073      81.352092589384       2.120387049084
       207    1       30.297867541845      79.937444635442       3.535030424084
       208    1       31.712510744073      81.352092589384       4.949673799084
       209    1       30.297867541845      79.937444635442       6.364317174084
       210    1       31.712510744073      81.352092589384       7.778960549084
       211    1       30.297867541845      79.937444635442       9.193603924084
       212    1       31.712510744073      81.352092589384      10.608247299084
       213    1       30.297867541845      82.766740543326       0.705743674084
       214    1       31.712510744073      84.181374916692       2.120387049084
       215    1       30.297867541845      82.766740543326       3.535030424084
       216    1       31.712510744073      84.181374916692       4.949673799084
       217    1       30.297867541845      82.766740543326       6.364317174084
       218    1       31.712510744073      84.181374916692       7.778960549084
       219    1       30.297867541845      82.766740543326       9.193603924084
       220    1       31.712510744073      84.181374916692      10.608247299084
       221    1       30.297867541845      85.596022870634       0.705743674084
       222    1       31.712510744073      87.010670824576       2.120387049084
       223    1       30.297867541845      85.596022870634       3.535030424084
       224    1       31.712510744073      87.010670824576       4.949673799084
       225    1       30.297867541845      85.596022870634       6.364317174084
       226    1       31.712510744073      87.010670824576       7.778960549084
       227    1       30.297867541845      85.596022870634       9.193603924084
       228    1       31.712510744073      87.010670824576      10.608247299084
       229    1       30.297867541845      88.425305197942       0.705743674084
       230    1       31.712510744073      89.839953151884       2.120387049084
       231    1       30.297867541845      88.425305197942       3.535030424084
       232    1       31.712510744073      89.839953151884       4.949673799084
       233    1       30.297867541845      88.425305197942       6.364317174084
       234    1       31.712510744073      89.839953151884       7.778960549084
       235    1       30.297867541845      88.425305197942       9.193603924084
       236    1       31.712510744073      89.839953151884      10.608247299084
       237    1       30.297867541845      91.254601105826       0.705743674084
       238    1       31.712510744073      92.669235479192       2.120387049084
       239    1       30.297867541845      91.254601105826       3.535030424084
       240    1       31.712510744073      92.669235479192       4.949673799084
       241    1       30.297867541845      91.254601105826       6.364317174084
       242    1       31.712510744073      92.669235479192       7.778960549084
       243    1       30.297867541845      91.254601105826       9.193603924084
       244    1       31.712510744073      92.669235479192      10.608247299084
       245    1       30.297867541845      94.083883433134       0.705743674084
       246    1       31.712510744073      95.498531387076       2.120387049084
       247    1       30.297867541845      94.083883433134       3.535030424084
       248    1       31.712510744073      95.498531387076       4.949673799084
       249    1       30.297867541845      94.083883433134       6.364317174084
       250    1       31.712510744073      95.498531387076       7.778960549084
       251    1       30.297867541845      94.083883433134       9.193603924084
       252    1       31.712510744073      95.498531387076      10.608247299084
       253    1       30.297867541845      96.913165760442       0.705743674084
       254    1       31.712510744073      98.327813714384       2.120387049084
       255    1       30.297867541845      96.913165760442       3.535030424084
       256    1       31.712510744073      98.327813714384       4.949673799084
       257    1       30.297867541845      96.913165760442       6.364317174084
       258    1       31.712510744073      98.327813714384       7.778960549084
       259    1       30.297867541845      96.913165760442       9.193603924084
       260    1       31.712510744073      98.327813714384      10.608247299084
       261    1       30.297867541845      99.742461668326       0.705743674084
       262    1       31.712510744073     101.157096041692       2.120387049084
       263    1       30.297867541845      99.742461668326       3.535030424084
       264    1       31.712510744073     101.157096041692       4.949673799084
       265    1       30.297867541845      99.742461668326       6.364317174084
       266    1       31.712510744073     101.157096041692       7.778960549084
       267    1       30.297867541845      99.742461668326       9.193603924084
       268    1       31.712510744073     101.157096041692      10.608247299084
       269    1       30.297867541845     102.571743995634       0.705743674084
       270    1       31.712510744073     103.986391949576       2.120387049084
       271    1       30.297867541845     102.571743995634       3.535030424084
       272    1       31.712510744073     103.986391949576       4.949673799084
       273    1       30.297867541845     102.571743995634       6.364317174084
       274    1       31.712510744073     103.986391949576       7.778960549084
       275    1       30.297867541845     102.571743995634       9.193603924084
       276    1       31.712510744073     103.986391949576      10.608247299084
       277    1       30.297867541845     105.401026322942       0.705743674084
       278    1       31.712510744073     106.815674276884       2.120387049084
       279    1       30.297867541845     105.401026322942       3.535030424084
       280    1       31.712510744073     106.815674276884       4.949673799084
       281    1       30.297867541845     105.401026322942       6.364317174084
       282    1       31.712510744073     106.815674276884       7.778960549084
       283    1       30.297867541845     105.401026322942       9.193603924084
       284    1       31.712510744073     106.815674276884      10.608247299084
       285    1       30.297867541845     108.230322230826       0.705743674084
       286    1       31.712510744073     109.644956604192       2.120387049084
       287    1       30.297867541845     108.230322230826       3.535030424084
       288    1       31.712510744073     109.644956604192       4.949673799084
       289    1       30.297867541845     108.230322230826       6.364317174084
       290    1       31.712510744073     109.644956604192       7.778960549084
       291    1       30.297867541845     108.230322230826       9.193603924084
       292    1       31.712510744073     109.644956604192      10.608247299084
       293    1       30.297867541845     111.059604558134       0.705743674084
       294    1       31.712510744073     112.474252512076       2.120387049084
       295    1       30.297867541845     111.059604558134       3.535030424084
       296    1       31.712510744073     112.474252512076       4.949673799084
       297    1       30.297867541845     111.059604558134       6.364317174084
       298    1       31.712510744073     112.474252512076       7.778960549084
       299    1       30.297867541845     111.059604558134       9.193603924084
       300    1       31.712510744073     112.474252512076      10.608247299084
       301    1       30.297867541845     113.888886885442       0.705743674084
       302    1       31.712510744073     115.303534839384       2.120387049084
       303    1       30.297867541845     113.888886885442       3.535030424084
       304    1       31.712510744073     115.303534839384       4.949673799084
       305    1       30.297867541845     113.888886885442       6.364317174084
       306    1       31.712510744073     115.303534839384       7.778960549084
       307    1       30.297867541845     113.888886885442       9.193603924084
       308    1       31.712510744073     115.303534839384      10.608247299084
       309    1       30.297867541845     116.718182793326       0.705743674084
       310    1       31.712510744073     118.132817166692       2.120387049084
       311    1       30.297867541845     116.718182793326       3.535030424084
       312    1       31.712510744073     118.132817166692       4.949673799084
       313    1       30.297867541845     116.718182793326       6.364317174084
       314    1       31.712510744073     118.132817166692       7.778960549084
       315    1       30.297867541845     116.718182793326       9.193603924084
       316    1       31.712510744073     118.132817166692      10.608247299084
       317    1       30.297867541845     119.547465120634       0.705743674084
       318    1       31.712510744073     120.962113074576       2.120387049084
       319    1       30.297867541845     119.547465120634       3.535030424084
       320    1       31.712510744073     120.962113074576       4.949673799084
       321    1       30.297867541845     119.547465120634       6.364317174084
       322    1       31.712510744073     120.962113074576       7.778960549084
       323    1       30.297867541845     119.547465120634       9.193603924084
       324    1       31.712510744073     120.962113074576      10.608247299084
       325    1       30.297867541845     122.376747447942       0.705743674084
       326    1       31.712510744073     123.791395401884       2.120387049084
       327    1       30.297867541845     122.376747447942       3.535030424084
       328    1       31.712510744073     123.791395401884       4.949673799084
       329    1       30.297867541845     122.376747447942       6.364317174084
       330    1       31.712510744073     123.791395401884       7.778960549084
       331    1       30.297867541845     122.376747447942       9.193603924084
       332    1       31.712510744073     123.791395401884      10.608247299084
       333    1       30.297867541845     125.206043355826       0.705743674084
       334    1       31.712510744073     126.620677729192       2.120387049084
       335    1       30.297867541845     125.206043355826       3.535030424084
       336    1       31.712510744073     126.620677729192       4.949673799084
       337    1       30.297867541845     125.206043355826       6.364317174084
       338    1       31.712510744073     126.620677729192       7.778960549084
       339    1       30.297867541845     125.206043355826       9.193603924084
       340    1       31.712510744073     126.620677729192      10.608247299084
       341    1       30.297867541845     128.035325683134       0.705743674084
       342    1       31.712510744073     129.449973637076       2.120387049084
       343    1       30.297867541845     128.035325683134       3.535030424084
       344    1       31.712510744073     129.449973637076       4.949673799084
       345    1       30.297867541845     128.035325683134       6.364317174084
       346    1       31.712510744073     129.449973637076       7.778960549084
       347    1       30.297867541845     128.035325683134       9.193603924084
       348    1       31.712510744073     129.449973637076      10.608247299084
       349    1       30.297867541845     130.864608010442       0.705743674084
       350    1       31.712510744073     132.279255964384       2.120387049084
       351    1       30.297867541845     130.864608010442       3.535030424084
       352    1       31.712510744073     132.279255964384       4.949673799084
       353    1       30.297867541845     130.864608010442       6.364317174084
       354    1       31.712510744073     132.279255964384       7.778960549084
       355    1       30.297867541845     130.864608010442       9.193603924084
       356    1       31.712510744073     132.279255964384      10.608247299084
       357    1       30.297867541845     133.693903918326       0.705743674084
       358    1       31.712510744073     135.108538291692       2.120387049084
       359    1       30.297867541845     133.693903918326       3.535030424084
       360    1       31.712510744073     135.108538291692       4.949673799084
       361    1       30.297867541845     133.693903918326       6.364317174084
       362    1       31.712510744073     135.108538291692       7.778960549084
       363    1       30.297867541845     133.693903918326       9.193603924084
       364    1       31.712510744073     135.108538291692      10.608247299084
       365    1       33.127154738502       0.717417245634       0.705743674084
       366    1       34.541797940730       2.132061125403       2.120387049084
       367    1       33.127154738502       0.717417245634       3.535030424084
       368    1       34.541797940730       2.132061125403       4.949673799084
       369    1       33.127154738502       0.717417245634       6.364317174084
       370    1       34.541797940730       2.132061125403       7.778960549084