 # File generated with Atomsk by user on 2025-02-06 12:01:07
  
       21242  atoms
           2  atom types
 
      0.000000000000     139.220032000000  xlo xhi
      0.000000000000     135.805769000000  ylo yhi
      0.000000000000      22.634294000000  zlo zhi
 
Masses
 
            1   55.84500000             # Fe
            2   1.00800000              # H
 
Atoms # atomic
 
         1    1       30.297888321876       0.717261387678       0.705668199535
         2    1       31.712531524104       2.131905267447       2.120311574535
         3    1       30.297888321876       0.717261387678       3.534954949535
         4    1       31.712531524104       2.131905267447       4.949598324535
         5    1       30.297888321876       0.717261387678       6.364241699535
         6    1       31.712531524104       2.131905267447       7.778885074535
         7    1       30.297888321876       0.717261387678       9.193528449535
         8    1       31.712531524104       2.131905267447      10.608171824535
         9    1       30.297888321876       3.546547789159       0.705668199535
        10    1       31.712531524104       4.961191668928       2.120311574535
        11    1       30.297888321876       3.546547789159       3.534954949535
        12    1       31.712531524104       4.961191668928       4.949598324535
        13    1       30.297888321876       3.546547789159       6.364241699535
        14    1       31.712531524104       4.961191668928       7.778885074535
        15    1       30.297888321876       3.546547789159       9.193528449535
        16    1       31.712531524104       4.961191668928      10.608171824535
        17    1       30.297888321876       6.375835548697       0.705668199535
        18    1       31.712531524104       7.790478070409       2.120311574535
        19    1       30.297888321876       6.375835548697       3.534954949535
        20    1       31.712531524104       7.790478070409       4.949598324535
        21    1       30.297888321876       6.375835548697       6.364241699535
        22    1       31.712531524104       7.790478070409       7.778885074535
        23    1       30.297888321876       6.375835548697       9.193528449535
        24    1       31.712531524104       7.790478070409      10.608171824535
        25    1       30.297888321876       9.205121950178       0.705668199535
        26    1       31.712531524104      10.619765829947       2.120311574535
        27    1       30.297888321876       9.205121950178       3.534954949535
        28    1       31.712531524104      10.619765829947       4.949598324535
        29    1       30.297888321876       9.205121950178       6.364241699535
        30    1       31.712531524104      10.619765829947       7.778885074535
        31    1       30.297888321876       9.205121950178       9.193528449535
        32    1       31.712531524104      10.619765829947      10.608171824535
        33    1       30.297888321876      12.034408351659       0.705668199535
        34    1       31.712531524104      13.449052231428       2.120311574535
        35    1       30.297888321876      12.034408351659       3.534954949535
        36    1       31.712531524104      13.449052231428       4.949598324535
        37    1       30.297888321876      12.034408351659       6.364241699535
        38    1       31.712531524104      13.449052231428       7.778885074535
        39    1       30.297888321876      12.034408351659       9.193528449535
        40    1       31.712531524104      13.449052231428      10.608171824535
        41    1       30.297888321876      14.863700185371       0.705668199535
        42    1       31.712531524104      16.278334558736       2.120311574535
        43    1       30.297888321876      14.863700185371       3.534954949535
        44    1       31.712531524104      16.278334558736       4.949598324535
        45    1       30.297888321876      14.863700185371       6.364241699535
        46    1       31.712531524104      16.278334558736       7.778885074535
        47    1       30.297888321876      14.863700185371       9.193528449535
        48    1       31.712531524104      16.278334558736      10.608171824535
        49    1       30.297888321876      17.692982512678       0.705668199535
        50    1       31.712531524104      19.107630466621       2.120311574535
        51    1       30.297888321876      17.692982512678       3.534954949535
        52    1       31.712531524104      19.107630466621       4.949598324535
        53    1       30.297888321876      17.692982512678       6.364241699535
        54    1       31.712531524104      19.107630466621       7.778885074535
        55    1       30.297888321876      17.692982512678       9.193528449535
        56    1       31.712531524104      19.107630466621      10.608171824535
        57    1       30.297888321876      20.522264839986       0.705668199535
        58    1       31.712531524104      21.936912793928       2.120311574535
        59    1       30.297888321876      20.522264839986       3.534954949535
        60    1       31.712531524104      21.936912793928       4.949598324535
        61    1       30.297888321876      20.522264839986       6.364241699535
        62    1       31.712531524104      21.936912793928       7.778885074535
        63    1       30.297888321876      20.522264839986       9.193528449535
        64    1       31.712531524104      21.936912793928      10.608171824535
        65    1       30.297888321876      23.351560747871       0.705668199535
        66    1       31.712531524104      24.766195121236       2.120311574535
        67    1       30.297888321876      23.351560747871       3.534954949535
        68    1       31.712531524104      24.766195121236       4.949598324535
        69    1       30.297888321876      23.351560747871       6.364241699535
        70    1       31.712531524104      24.766195121236       7.778885074535
        71    1       30.297888321876      23.351560747871       9.193528449535
        72    1       31.712531524104      24.766195121236      10.608171824535
        73    1       30.297888321876      26.180843075178       0.705668199535
        74    1       31.712531524104      27.595491029121       2.120311574535
        75    1       30.297888321876      26.180843075178       3.534954949535
        76    1       31.712531524104      27.595491029121       4.949598324535
        77    1       30.297888321876      26.180843075178       6.364241699535
        78    1       31.712531524104      27.595491029121       7.778885074535
        79    1       30.297888321876      26.180843075178       9.193528449535
        80    1       31.712531524104      27.595491029121      10.608171824535
        81    1       30.297888321876      29.010125402486       0.705668199535
        82    1       31.712531524104      30.424773356428       2.120311574535
        83    1       30.297888321876      29.010125402486       3.534954949535
        84    1       31.712531524104      30.424773356428       4.949598324535
        85    1       30.297888321876      29.010125402486       6.364241699535
        86    1       31.712531524104      30.424773356428       7.778885074535
        87    1       30.297888321876      29.010125402486       9.193528449535
        88    1       31.712531524104      30.424773356428      10.608171824535
        89    1       30.297888321876      31.839421310371       0.705668199535
        90    1       31.712531524104      33.254055683736       2.120311574535
        91    1       30.297888321876      31.839421310371       3.534954949535
        92    1       31.712531524104      33.254055683736       4.949598324535
        93    1       30.297888321876      31.839421310371       6.364241699535
        94    1       31.712531524104      33.254055683736       7.778885074535
        95    1       30.297888321876      31.839421310371       9.193528449535
        96    1       31.712531524104      33.254055683736      10.608171824535
        97    1       30.297888321876      34.668703637678       0.705668199535
        98    1       31.712531524104      36.083351591621       2.120311574535
        99    1       30.297888321876      34.668703637678       3.534954949535
       100    1       31.712531524104      36.083351591621       4.949598324535
       101    1       30.297888321876      34.668703637678       6.364241699535
       102    1       31.712531524104      36.083351591621       7.778885074535
       103    1       30.297888321876      34.668703637678       9.193528449535
       104    1       31.712531524104      36.083351591621      10.608171824535
       105    1       30.297888321876      37.497985964986       0.705668199535
       106    1       31.712531524104      38.912633918928       2.120311574535
       107    1       30.297888321876      37.497985964986       3.534954949535
       108    1       31.712531524104      38.912633918928       4.949598324535
       109    1       30.297888321876      37.497985964986       6.364241699535
       110    1       31.712531524104      38.912633918928       7.778885074535
       111    1       30.297888321876      37.497985964986       9.193528449535
       112    1       31.712531524104      38.912633918928      10.608171824535
       113    1       30.297888321876      40.327281872871       0.705668199535
       114    1       31.712531524104      41.741916246236       2.120311574535
       115    1       30.297888321876      40.327281872871       3.534954949535
       116    1       31.712531524104      41.741916246236       4.949598324535
       117    1       30.297888321876      40.327281872871       6.364241699535
       118    1       31.712531524104      41.741916246236       7.778885074535
       119    1       30.297888321876      40.327281872871       9.193528449535
       120    1       31.712531524104      41.741916246236      10.608171824535
       121    1       30.297888321876      43.156564200178       0.705668199535
       122    1       31.712531524104      44.571212154121       2.120311574535
       123    1       30.297888321876      43.156564200178       3.534954949535
       124    1       31.712531524104      44.571212154121       4.949598324535
       125    1       30.297888321876      43.156564200178       6.364241699535
       126    1       31.712531524104      44.571212154121       7.778885074535
       127    1       30.297888321876      43.156564200178       9.193528449535
       128    1       31.712531524104      44.571212154121      10.608171824535
       129    1       30.297888321876      45.985846527486       0.705668199535
       130    1       31.712531524104      47.400494481428       2.120311574535
       131    1       30.297888321876      45.985846527486       3.534954949535
       132    1       31.712531524104      47.400494481428       4.949598324535
       133    1       30.297888321876      45.985846527486       6.364241699535
       134    1       31.712531524104      47.400494481428       7.778885074535
       135    1       30.297888321876      45.985846527486       9.193528449535
       136    1       31.712531524104      47.400494481428      10.608171824535
       137    1       30.297888321876      48.815142435371       0.705668199535
       138    1       31.712531524104      50.229776808736       2.120311574535
       139    1       30.297888321876      48.815142435371       3.534954949535
       140    1       31.712531524104      50.229776808736       4.949598324535
       141    1       30.297888321876      48.815142435371       6.364241699535
       142    1       31.712531524104      50.229776808736       7.778885074535
       143    1       30.297888321876      48.815142435371       9.193528449535
       144    1       31.712531524104      50.229776808736      10.608171824535
       145    1       30.297888321876      51.644424762678       0.705668199535
       146    1       31.712531524104      53.059072716621       2.120311574535
       147    1       30.297888321876      51.644424762678       3.534954949535
       148    1       31.712531524104      53.059072716621       4.949598324535
       149    1       30.297888321876      51.644424762678       6.364241699535
       150    1       31.712531524104      53.059072716621       7.778885074535
       151    1       30.297888321876      51.644424762678       9.193528449535
       152    1       31.712531524104      53.059072716621      10.608171824535
       153    1       30.297888321876      54.473707089986       0.705668199535
       154    1       31.712531524104      55.888355043928       2.120311574535
       155    1       30.297888321876      54.473707089986       3.534954949535
       156    1       31.712531524104      55.888355043928       4.949598324535
       157    1       30.297888321876      54.473707089986       6.364241699535
       158    1       31.712531524104      55.888355043928       7.778885074535
       159    1       30.297888321876      54.473707089986       9.193528449535
       160    1       31.712531524104      55.888355043928      10.608171824535
       161    1       30.297888321876      57.303002997871       0.705668199535
       162    1       31.712531524104      58.717637371236       2.120311574535
       163    1       30.297888321876      57.303002997871       3.534954949535
       164    1       31.712531524104      58.717637371236       4.949598324535
       165    1       30.297888321876      57.303002997871       6.364241699535
       166    1       31.712531524104      58.717637371236       7.778885074535
       167    1       30.297888321876      57.303002997871       9.193528449535
       168    1       31.712531524104      58.717637371236      10.608171824535
       169    1       30.297888321876      60.132285325178       0.705668199535
       170    1       31.712531524104      61.546933279121       2.120311574535
       171    1       30.297888321876      60.132285325178       3.534954949535
       172    1       31.712531524104      61.546933279121       4.949598324535
       173    1       30.297888321876      60.132285325178       6.364241699535
       174    1       31.712531524104      61.546933279121       7.778885074535
       175    1       30.297888321876      60.132285325178       9.193528449535
       176    1       31.712531524104      61.546933279121      10.608171824535
       177    1       30.297888321876      62.961567652486       0.705668199535
       178    1       31.712531524104      64.376215606428       2.120311574535
       179    1       30.297888321876      62.961567652486       3.534954949535
       180    1       31.712531524104      64.376215606428       4.949598324535
       181    1       30.297888321876      62.961567652486       6.364241699535
       182    1       31.712531524104      64.376215606428       7.778885074535
       183    1       30.297888321876      62.961567652486       9.193528449535
       184    1       31.712531524104      64.376215606428      10.608171824535
       185    1       31.712531524104      72.864076168928       2.120311574535
       186    1       31.712531524104      72.864076168928       4.949598324535
       187    1       31.712531524104      72.864076168928       7.778885074535
       188    1       31.712531524104      72.864076168928      10.608171824535
       189    1       30.297888321876      74.278724122871       0.705668199535
       190    1       31.712531524104      75.693358496236       2.120311574535
       191    1       30.297888321876      74.278724122871       3.534954949535
       192    1       31.712531524104      75.693358496236       4.949598324535
       193    1       30.297888321876      74.278724122871       6.364241699535
       194    1       31.712531524104      75.693358496236       7.778885074535
       195    1       30.297888321876      74.278724122871       9.193528449535
       196    1       31.712531524104      75.693358496236      10.608171824535
       197    1       30.297888321876      77.108006450178       0.705668199535
       198    1       31.712531524104      78.522654404121       2.120311574535
       199    1       30.297888321876      77.108006450178       3.534954949535
       200    1       31.712531524104      78.522654404121       4.949598324535
       201    1       30.297888321876      77.108006450178       6.364241699535
       202    1       31.712531524104      78.522654404121       7.778885074535
       203    1       30.297888321876      77.108006450178       9.193528449535
       204    1       31.712531524104      78.522654404121      10.608171824535
       205    1       30.297888321876      79.937288777486       0.705668199535
       206    1       31.712531524104      81.351936731428       2.120311574535
       207    1       30.297888321876      79.937288777486       3.534954949535
       208    1       31.712531524104      81.351936731428       4.949598324535
       209    1       30.297888321876      79.937288777486       6.364241699535
       210    1       31.712531524104      81.351936731428       7.778885074535
       211    1       30.297888321876      79.937288777486       9.193528449535
       212    1       31.712531524104      81.351936731428      10.608171824535
       213    1       30.297888321876      82.766584685371       0.705668199535
       214    1       31.712531524104      84.181219058736       2.120311574535
       215    1       30.297888321876      82.766584685371       3.534954949535
       216    1       31.712531524104      84.181219058736       4.949598324535
       217    1       30.297888321876      82.766584685371       6.364241699535
       218    1       31.712531524104      84.181219058736       7.778885074535
       219    1       30.297888321876      82.766584685371       9.193528449535
       220    1       31.712531524104      84.181219058736      10.608171824535
       221    1       30.297888321876      85.595867012678       0.705668199535
       222    1       31.712531524104      87.010514966621       2.120311574535
       223    1       30.297888321876      85.595867012678       3.534954949535
       224    1       31.712531524104      87.010514966621       4.949598324535
       225    1       30.297888321876      85.595867012678       6.364241699535
       226    1       31.712531524104      87.010514966621       7.778885074535
       227    1       30.297888321876      85.595867012678       9.193528449535
       228    1       31.712531524104      87.010514966621      10.608171824535
       229    1       30.297888321876      88.425149339986       0.705668199535
       230    1       31.712531524104      89.839797293928       2.120311574535
       231    1       30.297888321876      88.425149339986       3.534954949535
       232    1       31.712531524104      89.839797293928       4.949598324535
       233    1       30.297888321876      88.425149339986       6.364241699535
       234    1       31.712531524104      89.839797293928       7.778885074535
       235    1       30.297888321876      88.425149339986       9.193528449535
       236    1       31.712531524104      89.839797293928      10.608171824535
       237    1       30.297888321876      91.254445247871       0.705668199535
       238    1       31.712531524104      92.669079621236       2.120311574535
       239    1       30.297888321876      91.254445247871       3.534954949535
       240    1       31.712531524104      92.669079621236       4.949598324535
       241    1       30.297888321876      91.254445247871       6.364241699535
       242    1       31.712531524104      92.669079621236       7.778885074535
       243    1       30.297888321876      91.254445247871       9.193528449535
       244    1       31.712531524104      92.669079621236      10.608171824535
       245    1       30.297888321876      94.083727575178       0.705668199535
       246    1       31.712531524104      95.498375529121       2.120311574535
       247    1       30.297888321876      94.083727575178       3.534954949535
       248    1       31.712531524104      95.498375529121       4.949598324535
       249    1       30.297888321876      94.083727575178       6.364241699535
       250    1       31.712531524104      95.498375529121       7.778885074535
       251    1       30.297888321876      94.083727575178       9.193528449535
       252    1       31.712531524104      95.498375529121      10.608171824535
       253    1       30.297888321876      96.913009902486       0.705668199535
       254    1       31.712531524104      98.327657856428       2.120311574535
       255    1       30.297888321876      96.913009902486       3.534954949535
       256    1       31.712531524104      98.327657856428       4.949598324535
       257    1       30.297888321876      96.913009902486       6.364241699535
       258    1       31.712531524104      98.327657856428       7.778885074535
       259    1       30.297888321876      96.913009902486       9.193528449535
       260    1       31.712531524104      98.327657856428      10.608171824535
       261    1       30.297888321876      99.742305810371       0.705668199535
       262    1       31.712531524104     101.156940183736       2.120311574535
       263    1       30.297888321876      99.742305810371       3.534954949535
       264    1       31.712531524104     101.156940183736       4.949598324535
       265    1       30.297888321876      99.742305810371       6.364241699535
       266    1       31.712531524104     101.156940183736       7.778885074535
       267    1       30.297888321876      99.742305810371       9.193528449535
       268    1       31.712531524104     101.156940183736      10.608171824535
       269    1       30.297888321876     102.571588137678       0.705668199535
       270    1       31.712531524104     103.986236091621       2.120311574535
       271    1       30.297888321876     102.571588137678       3.534954949535
       272    1       31.712531524104     103.986236091621       4.949598324535
       273    1       30.297888321876     102.571588137678       6.364241699535
       274    1       31.712531524104     103.986236091621       7.778885074535
       275    1       30.297888321876     102.571588137678       9.193528449535
       276    1       31.712531524104     103.986236091621      10.608171824535
       277    1       30.297888321876     105.400870464986       0.705668199535
       278    1       31.712531524104     106.815518418928       2.120311574535
       279    1       30.297888321876     105.400870464986       3.534954949535
       280    1       31.712531524104     106.815518418928       4.949598324535
       281    1       30.297888321876     105.400870464986       6.364241699535
       282    1       31.712531524104     106.815518418928       7.778885074535
       283    1       30.297888321876     105.400870464986       9.193528449535
       284    1       31.712531524104     106.815518418928      10.608171824535
       285    1       30.297888321876     108.230166372871       0.705668199535
       286    1       31.712531524104     109.644800746236       2.120311574535
       287    1       30.297888321876     108.230166372871       3.534954949535
       288    1       31.712531524104     109.644800746236       4.949598324535
       289    1       30.297888321876     108.230166372871       6.364241699535
       290    1       31.712531524104     109.644800746236       7.778885074535
       291    1       30.297888321876     108.230166372871       9.193528449535
       292    1       31.712531524104     109.644800746236      10.608171824535
       293    1       30.297888321876     111.059448700178       0.705668199535
       294    1       31.712531524104     112.474096654121       2.120311574535
       295    1       30.297888321876     111.059448700178       3.534954949535
       296    1       31.712531524104     112.474096654121       4.949598324535
       297    1       30.297888321876     111.059448700178       6.364241699535
       298    1       31.712531524104     112.474096654121       7.778885074535
       299    1       30.297888321876     111.059448700178       9.193528449535
       300    1       31.712531524104     112.474096654121      10.608171824535
       301    1       30.297888321876     113.888731027486       0.705668199535
       302    1       31.712531524104     115.303378981428       2.120311574535
       303    1       30.297888321876     113.888731027486       3.534954949535
       304    1       31.712531524104     115.303378981428       4.949598324535
       305    1       30.297888321876     113.888731027486       6.364241699535
       306    1       31.712531524104     115.303378981428       7.778885074535
       307    1       30.297888321876     113.888731027486       9.193528449535
       308    1       31.712531524104     115.303378981428      10.608171824535
       309    1       30.297888321876     116.718026935371       0.705668199535
       310    1       31.712531524104     118.132661308736       2.120311574535
       311    1       30.297888321876     116.718026935371       3.534954949535
       312    1       31.712531524104     118.132661308736       4.949598324535
       313    1       30.297888321876     116.718026935371       6.364241699535
       314    1       31.712531524104     118.132661308736       7.778885074535
       315    1       30.297888321876     116.718026935371       9.193528449535
       316    1       31.712531524104     118.132661308736      10.608171824535
       317    1       30.297888321876     119.547309262678       0.705668199535
       318    1       31.712531524104     120.961957216621       2.120311574535
       319    1       30.297888321876     119.547309262678       3.534954949535
       320    1       31.712531524104     120.961957216621       4.949598324535
       321    1       30.297888321876     119.547309262678       6.364241699535
       322    1       31.712531524104     120.961957216621       7.778885074535
       323    1       30.297888321876     119.547309262678       9.193528449535
       324    1       31.712531524104     120.961957216621      10.608171824535
       325    1       30.297888321876     122.376591589986       0.705668199535
       326    1       31.712531524104     123.791239543928       2.120311574535
       327    1       30.297888321876     122.376591589986       3.534954949535
       328    1       31.712531524104     123.791239543928       4.949598324535
       329    1       30.297888321876     122.376591589986       6.364241699535
       330    1       31.712531524104     123.791239543928       7.778885074535
       331    1       30.297888321876     122.376591589986       9.193528449535
       332    1       31.712531524104     123.791239543928      10.608171824535
       333    1       30.297888321876     125.205887497871       0.705668199535
       334    1       31.712531524104     126.620521871236       2.120311574535
       335    1       30.297888321876     125.205887497871       3.534954949535
       336    1       31.712531524104     126.620521871236       4.949598324535
       337    1       30.297888321876     125.205887497871       6.364241699535
       338    1       31.712531524104     126.620521871236       7.778885074535
       339    1       30.297888321876     125.205887497871       9.193528449535
       340    1       31.712531524104     126.620521871236      10.608171824535
       341    1       30.297888321876     128.035169825178       0.705668199535
       342    1       31.712531524104     129.449817779121       2.120311574535
       343    1       30.297888321876     128.035169825178       3.534954949535
       344    1       31.712531524104     129.449817779121       4.949598324535
       345    1       30.297888321876     128.035169825178       6.364241699535
       346    1       31.712531524104     129.449817779121       7.778885074535
       347    1       30.297888321876     128.035169825178       9.193528449535
       348    1       31.712531524104     129.449817779121      10.608171824535
       349    1       30.297888321876     130.864452152486       0.705668199535
       350    1       31.712531524104     132.279100106428       2.120311574535
       351    1       30.297888321876     130.864452152486       3.534954949535
       352    1       31.712531524104     132.279100106428       4.949598324535
       353    1       30.297888321876     130.864452152486       6.364241699535
       354    1       31.712531524104     132.279100106428       7.778885074535
       355    1       30.297888321876     130.864452152486       9.193528449535
       356    1       31.712531524104     132.279100106428      10.608171824535
       357    1       30.297888321876     133.693748060371       0.705668199535
       358    1       31.712531524104     135.108382433736       2.120311574535
       359    1       30.297888321876     133.693748060371       3.534954949535
       360    1       31.712531524104     135.108382433736       4.949598324535
       361    1       30.297888321876     133.693748060371       6.364241699535
       362    1       31.712531524104     135.108382433736       7.778885074535
       363    1       30.297888321876     133.693748060371       9.193528449535
       364    1       31.712531524104     135.108382433736      10.608171824535
       365    1       33.127175518533       0.717261387678       0.705668199535
       366    1       34.541818720762       2.131905267447       2.120311574535
       367    1       33.127175518533       0.717261387678       3.534954949535
       368    1       34.541818720762       2.131905267447       4.949598324535
       369    1       33.127175518533       0.717261387678       6.364241699535
       370    1       34.541818720762       2.131905267447       7.778885074535