 # File generated with Atomsk by user on 2025-01-20 21:34:44
  
       10600  atoms
           1  atom types
 
      0.000000000000      79.220032000000  xlo xhi
      0.000000000000     135.805769000000  ylo yhi
      0.000000000000      11.317147000000  zlo zhi
 
Masses
 
            1   55.84500000             # Fe
 
Atoms # atomic
 
         1    1        0.000000000000       0.000000000000       0.000000000000
         2    1        1.414643202228       1.414643879769       1.414643375000
         3    1        0.000000000000       0.000000000000       2.829286750000
         4    1        1.414643202228       1.414643879769       4.243930125000
         5    1        0.000000000000       0.000000000000       5.658573500000
         6    1        1.414643202228       1.414643879769       7.073216875000
         7    1        0.000000000000       0.000000000000       8.487860250000
         8    1        1.414643202228       1.414643879769       9.902503625000
         9    1        0.000000000000       2.829286401481       0.000000000000
        10    1        1.414643202228       4.243930281250       1.414643375000
        11    1        0.000000000000       2.829286401481       2.829286750000
        12    1        1.414643202228       4.243930281250       4.243930125000
        13    1        0.000000000000       2.829286401481       5.658573500000
        14    1        1.414643202228       4.243930281250       7.073216875000
        15    1        0.000000000000       2.829286401481       8.487860250000
        16    1        1.414643202228       4.243930281250       9.902503625000
        17    1        0.000000000000       5.658574161019       0.000000000000
        18    1        1.414643202228       7.073216682731       1.414643375000
        19    1        0.000000000000       5.658574161019       2.829286750000
        20    1        1.414643202228       7.073216682731       4.243930125000
        21    1        0.000000000000       5.658574161019       5.658573500000
        22    1        1.414643202228       7.073216682731       7.073216875000
        23    1        0.000000000000       5.658574161019       8.487860250000
        24    1        1.414643202228       7.073216682731       9.902503625000
        25    1        0.000000000000       8.487860562500       0.000000000000
        26    1        1.414643202228       9.902504442269       1.414643375000
        27    1        0.000000000000       8.487860562500       2.829286750000
        28    1        1.414643202228       9.902504442269       4.243930125000
        29    1        0.000000000000       8.487860562500       5.658573500000
        30    1        1.414643202228       9.902504442269       7.073216875000
        31    1        0.000000000000       8.487860562500       8.487860250000
        32    1        1.414643202228       9.902504442269       9.902503625000
        33    1        0.000000000000      11.317146963981       0.000000000000
        34    1        1.414643202228      12.731790843750       1.414643375000
        35    1        0.000000000000      11.317146963981       2.829286750000
        36    1        1.414643202228      12.731790843750       4.243930125000
        37    1        0.000000000000      11.317146963981       5.658573500000
        38    1        1.414643202228      12.731790843750       7.073216875000
        39    1        0.000000000000      11.317146963981       8.487860250000
        40    1        1.414643202228      12.731790843750       9.902503625000
        41    1        0.000000000000      14.146438797692       0.000000000000
        42    1        1.414643202228      15.561073171058       1.414643375000
        43    1        0.000000000000      14.146438797692       2.829286750000
        44    1        1.414643202228      15.561073171058       4.243930125000
        45    1        0.000000000000      14.146438797692       5.658573500000
        46    1        1.414643202228      15.561073171058       7.073216875000
        47    1        0.000000000000      14.146438797692       8.487860250000
        48    1        1.414643202228      15.561073171058       9.902503625000
        49    1        0.000000000000      16.975721125000       0.000000000000
        50    1        1.414643202228      18.390369078942       1.414643375000
        51    1        0.000000000000      16.975721125000       2.829286750000
        52    1        1.414643202228      18.390369078942       4.243930125000
        53    1        0.000000000000      16.975721125000       5.658573500000
        54    1        1.414643202228      18.390369078942       7.073216875000
        55    1        0.000000000000      16.975721125000       8.487860250000
        56    1        1.414643202228      18.390369078942       9.902503625000
        57    1        0.000000000000      19.805003452308       0.000000000000
        58    1        1.414643202228      21.219651406250       1.414643375000
        59    1        0.000000000000      19.805003452308       2.829286750000
        60    1        1.414643202228      21.219651406250       4.243930125000
        61    1        0.000000000000      19.805003452308       5.658573500000
        62    1        1.414643202228      21.219651406250       7.073216875000
        63    1        0.000000000000      19.805003452308       8.487860250000
        64    1        1.414643202228      21.219651406250       9.902503625000
        65    1        0.000000000000      22.634299360192       0.000000000000
        66    1        1.414643202228      24.048933733558       1.414643375000
        67    1        0.000000000000      22.634299360192       2.829286750000
        68    1        1.414643202228      24.048933733558       4.243930125000
        69    1        0.000000000000      22.634299360192       5.658573500000
        70    1        1.414643202228      24.048933733558       7.073216875000
        71    1        0.000000000000      22.634299360192       8.487860250000
        72    1        1.414643202228      24.048933733558       9.902503625000
        73    1        0.000000000000      25.463581687500       0.000000000000
        74    1        1.414643202228      26.878229641442       1.414643375000
        75    1        0.000000000000      25.463581687500       2.829286750000
        76    1        1.414643202228      26.878229641442       4.243930125000
        77    1        0.000000000000      25.463581687500       5.658573500000
        78    1        1.414643202228      26.878229641442       7.073216875000
        79    1        0.000000000000      25.463581687500       8.487860250000
        80    1        1.414643202228      26.878229641442       9.902503625000
        81    1        0.000000000000      28.292864014808       0.000000000000
        82    1        1.414643202228      29.707511968750       1.414643375000
        83    1        0.000000000000      28.292864014808       2.829286750000
        84    1        1.414643202228      29.707511968750       4.243930125000
        85    1        0.000000000000      28.292864014808       5.658573500000
        86    1        1.414643202228      29.707511968750       7.073216875000
        87    1        0.000000000000      28.292864014808       8.487860250000
        88    1        1.414643202228      29.707511968750       9.902503625000
        89    1        0.000000000000      31.122159922692       0.000000000000
        90    1        1.414643202228      32.536794296058       1.414643375000
        91    1        0.000000000000      31.122159922692       2.829286750000
        92    1        1.414643202228      32.536794296058       4.243930125000
        93    1        0.000000000000      31.122159922692       5.658573500000
        94    1        1.414643202228      32.536794296058       7.073216875000
        95    1        0.000000000000      31.122159922692       8.487860250000
        96    1        1.414643202228      32.536794296058       9.902503625000
        97    1        0.000000000000      33.951442250000       0.000000000000
        98    1        1.414643202228      35.366090203942       1.414643375000
        99    1        0.000000000000      33.951442250000       2.829286750000
       100    1        1.414643202228      35.366090203942       4.243930125000
       101    1        0.000000000000      33.951442250000       5.658573500000
       102    1        1.414643202228      35.366090203942       7.073216875000
       103    1        0.000000000000      33.951442250000       8.487860250000
       104    1        1.414643202228      35.366090203942       9.902503625000
       105    1        0.000000000000      36.780724577308       0.000000000000
       106    1        1.414643202228      38.195372531250       1.414643375000
       107    1        0.000000000000      36.780724577308       2.829286750000
       108    1        1.414643202228      38.195372531250       4.243930125000
       109    1        0.000000000000      36.780724577308       5.658573500000
       110    1        1.414643202228      38.195372531250       7.073216875000
       111    1        0.000000000000      36.780724577308       8.487860250000
       112    1        1.414643202228      38.195372531250       9.902503625000
       113    1        0.000000000000      39.610020485192       0.000000000000
       114    1        1.414643202228      41.024654858558       1.414643375000
       115    1        0.000000000000      39.610020485192       2.829286750000
       116    1        1.414643202228      41.024654858558       4.243930125000
       117    1        0.000000000000      39.610020485192       5.658573500000
       118    1        1.414643202228      41.024654858558       7.073216875000
       119    1        0.000000000000      39.610020485192       8.487860250000
       120    1        1.414643202228      41.024654858558       9.902503625000
       121    1        0.000000000000      42.439302812500       0.000000000000
       122    1        1.414643202228      43.853950766442       1.414643375000
       123    1        0.000000000000      42.439302812500       2.829286750000
       124    1        1.414643202228      43.853950766442       4.243930125000
       125    1        0.000000000000      42.439302812500       5.658573500000
       126    1        1.414643202228      43.853950766442       7.073216875000
       127    1        0.000000000000      42.439302812500       8.487860250000
       128    1        1.414643202228      43.853950766442       9.902503625000
       129    1        0.000000000000      45.268585139808       0.000000000000
       130    1        1.414643202228      46.683233093750       1.414643375000
       131    1        0.000000000000      45.268585139808       2.829286750000
       132    1        1.414643202228      46.683233093750       4.243930125000
       133    1        0.000000000000      45.268585139808       5.658573500000
       134    1        1.414643202228      46.683233093750       7.073216875000
       135    1        0.000000000000      45.268585139808       8.487860250000
       136    1        1.414643202228      46.683233093750       9.902503625000
       137    1        0.000000000000      48.097881047692       0.000000000000
       138    1        1.414643202228      49.512515421058       1.414643375000
       139    1        0.000000000000      48.097881047692       2.829286750000
       140    1        1.414643202228      49.512515421058       4.243930125000
       141    1        0.000000000000      48.097881047692       5.658573500000
       142    1        1.414643202228      49.512515421058       7.073216875000
       143    1        0.000000000000      48.097881047692       8.487860250000
       144    1        1.414643202228      49.512515421058       9.902503625000
       145    1        0.000000000000      50.927163375000       0.000000000000
       146    1        1.414643202228      52.341811328942       1.414643375000
       147    1        0.000000000000      50.927163375000       2.829286750000
       148    1        1.414643202228      52.341811328942       4.243930125000
       149    1        0.000000000000      50.927163375000       5.658573500000
       150    1        1.414643202228      52.341811328942       7.073216875000
       151    1        0.000000000000      50.927163375000       8.487860250000
       152    1        1.414643202228      52.341811328942       9.902503625000
       153    1        0.000000000000      53.756445702308       0.000000000000
       154    1        1.414643202228      55.171093656250       1.414643375000
       155    1        0.000000000000      53.756445702308       2.829286750000
       156    1        1.414643202228      55.171093656250       4.243930125000
       157    1        0.000000000000      53.756445702308       5.658573500000
       158    1        1.414643202228      55.171093656250       7.073216875000
       159    1        0.000000000000      53.756445702308       8.487860250000
       160    1        1.414643202228      55.171093656250       9.902503625000
       161    1        0.000000000000      56.585741610192       0.000000000000
       162    1        1.414643202228      58.000375983558       1.414643375000
       163    1        0.000000000000      56.585741610192       2.829286750000
       164    1        1.414643202228      58.000375983558       4.243930125000
       165    1        0.000000000000      56.585741610192       5.658573500000
       166    1        1.414643202228      58.000375983558       7.073216875000
       167    1        0.000000000000      56.585741610192       8.487860250000
       168    1        1.414643202228      58.000375983558       9.902503625000
       169    1        0.000000000000      59.415023937500       0.000000000000
       170    1        1.414643202228      60.829671891442       1.414643375000
       171    1        0.000000000000      59.415023937500       2.829286750000
       172    1        1.414643202228      60.829671891442       4.243930125000
       173    1        0.000000000000      59.415023937500       5.658573500000
       174    1        1.414643202228      60.829671891442       7.073216875000
       175    1        0.000000000000      59.415023937500       8.487860250000
       176    1        1.414643202228      60.829671891442       9.902503625000
       177    1        0.000000000000      62.244306264808       0.000000000000
       178    1        1.414643202228      63.658954218750       1.414643375000
       179    1        0.000000000000      62.244306264808       2.829286750000
       180    1        1.414643202228      63.658954218750       4.243930125000
       181    1        0.000000000000      62.244306264808       5.658573500000
       182    1        1.414643202228      63.658954218750       7.073216875000
       183    1        0.000000000000      62.244306264808       8.487860250000
       184    1        1.414643202228      63.658954218750       9.902503625000
       185    1        1.414643202228      72.146814781250       1.414643375000
       186    1        1.414643202228      72.146814781250       4.243930125000
       187    1        1.414643202228      72.146814781250       7.073216875000
       188    1        1.414643202228      72.146814781250       9.902503625000
       189    1        0.000000000000      73.561462735192       0.000000000000
       190    1        1.414643202228      74.976097108558       1.414643375000
       191    1        0.000000000000      73.561462735192       2.829286750000
       192    1        1.414643202228      74.976097108558       4.243930125000
       193    1        0.000000000000      73.561462735192       5.658573500000
       194    1        1.414643202228      74.976097108558       7.073216875000
       195    1        0.000000000000      73.561462735192       8.487860250000
       196    1        1.414643202228      74.976097108558       9.902503625000
       197    1        0.000000000000      76.390745062500       0.000000000000
       198    1        1.414643202228      77.805393016442       1.414643375000
       199    1        0.000000000000      76.390745062500       2.829286750000
       200    1        1.414643202228      77.805393016442       4.243930125000
       201    1        0.000000000000      76.390745062500       5.658573500000
       202    1        1.414643202228      77.805393016442       7.073216875000
       203    1        0.000000000000      76.390745062500       8.487860250000
       204    1        1.414643202228      77.805393016442       9.902503625000
       205    1        0.000000000000      79.220027389808       0.000000000000
       206    1        1.414643202228      80.634675343750       1.414643375000
       207    1        0.000000000000      79.220027389808       2.829286750000
       208    1        1.414643202228      80.634675343750       4.243930125000
       209    1        0.000000000000      79.220027389808       5.658573500000
       210    1        1.414643202228      80.634675343750       7.073216875000
       211    1        0.000000000000      79.220027389808       8.487860250000
       212    1        1.414643202228      80.634675343750       9.902503625000
       213    1        0.000000000000      82.049323297692       0.000000000000
       214    1        1.414643202228      83.463957671058       1.414643375000
       215    1        0.000000000000      82.049323297692       2.829286750000
       216    1        1.414643202228      83.463957671058       4.243930125000
       217    1        0.000000000000      82.049323297692       5.658573500000
       218    1        1.414643202228      83.463957671058       7.073216875000
       219    1        0.000000000000      82.049323297692       8.487860250000
       220    1        1.414643202228      83.463957671058       9.902503625000
       221    1        0.000000000000      84.878605625000       0.000000000000
       222    1        1.414643202228      86.293253578942       1.414643375000
       223    1        0.000000000000      84.878605625000       2.829286750000
       224    1        1.414643202228      86.293253578942       4.243930125000
       225    1        0.000000000000      84.878605625000       5.658573500000
       226    1        1.414643202228      86.293253578942       7.073216875000
       227    1        0.000000000000      84.878605625000       8.487860250000
       228    1        1.414643202228      86.293253578942       9.902503625000
       229    1        0.000000000000      87.707887952308       0.000000000000
       230    1        1.414643202228      89.122535906250       1.414643375000
       231    1        0.000000000000      87.707887952308       2.829286750000
       232    1        1.414643202228      89.122535906250       4.243930125000
       233    1        0.000000000000      87.707887952308       5.658573500000
       234    1        1.414643202228      89.122535906250       7.073216875000
       235    1        0.000000000000      87.707887952308       8.487860250000
       236    1        1.414643202228      89.122535906250       9.902503625000
       237    1        0.000000000000      90.537183860192       0.000000000000
       238    1        1.414643202228      91.951818233558       1.414643375000
       239    1        0.000000000000      90.537183860192       2.829286750000
       240    1        1.414643202228      91.951818233558       4.243930125000
       241    1        0.000000000000      90.537183860192       5.658573500000
       242    1        1.414643202228      91.951818233558       7.073216875000
       243    1        0.000000000000      90.537183860192       8.487860250000
       244    1        1.414643202228      91.951818233558       9.902503625000
       245    1        0.000000000000      93.366466187500       0.000000000000
       246    1        1.414643202228      94.781114141442       1.414643375000
       247    1        0.000000000000      93.366466187500       2.829286750000
       248    1        1.414643202228      94.781114141442       4.243930125000
       249    1        0.000000000000      93.366466187500       5.658573500000
       250    1        1.414643202228      94.781114141442       7.073216875000
       251    1        0.000000000000      93.366466187500       8.487860250000
       252    1        1.414643202228      94.781114141442       9.902503625000
       253    1        0.000000000000      96.195748514808       0.000000000000
       254    1        1.414643202228      97.610396468750       1.414643375000
       255    1        0.000000000000      96.195748514808       2.829286750000
       256    1        1.414643202228      97.610396468750       4.243930125000
       257    1        0.000000000000      96.195748514808       5.658573500000
       258    1        1.414643202228      97.610396468750       7.073216875000
       259    1        0.000000000000      96.195748514808       8.487860250000
       260    1        1.414643202228      97.610396468750       9.902503625000
       261    1        0.000000000000      99.025044422692       0.000000000000
       262    1        1.414643202228     100.439678796058       1.414643375000
       263    1        0.000000000000      99.025044422692       2.829286750000
       264    1        1.414643202228     100.439678796058       4.243930125000
       265    1        0.000000000000      99.025044422692       5.658573500000
       266    1        1.414643202228     100.439678796058       7.073216875000
       267    1        0.000000000000      99.025044422692       8.487860250000
       268    1        1.414643202228     100.439678796058       9.902503625000
       269    1        0.000000000000     101.854326750000       0.000000000000
       270    1        1.414643202228     103.268974703942       1.414643375000
       271    1        0.000000000000     101.854326750000       2.829286750000
       272    1        1.414643202228     103.268974703942       4.243930125000
       273    1        0.000000000000     101.854326750000       5.658573500000
       274    1        1.414643202228     103.268974703942       7.073216875000
       275    1        0.000000000000     101.854326750000       8.487860250000
       276    1        1.414643202228     103.268974703942       9.902503625000
       277    1        0.000000000000     104.683609077308       0.000000000000
       278    1        1.414643202228     106.098257031250       1.414643375000
       279    1        0.000000000000     104.683609077308       2.829286750000
       280    1        1.414643202228     106.098257031250       4.243930125000
       281    1        0.000000000000     104.683609077308       5.658573500000
       282    1        1.414643202228     106.098257031250       7.073216875000
       283    1        0.000000000000     104.683609077308       8.487860250000
       284    1        1.414643202228     106.098257031250       9.902503625000
       285    1        0.000000000000     107.512904985192       0.000000000000
       286    1        1.414643202228     108.927539358558       1.414643375000
       287    1        0.000000000000     107.512904985192       2.829286750000
       288    1        1.414643202228     108.927539358558       4.243930125000
       289    1        0.000000000000     107.512904985192       5.658573500000
       290    1        1.414643202228     108.927539358558       7.073216875000
       291    1        0.000000000000     107.512904985192       8.487860250000
       292    1        1.414643202228     108.927539358558       9.902503625000
       293    1        0.000000000000     110.342187312500       0.000000000000
       294    1        1.414643202228     111.756835266442       1.414643375000
       295    1        0.000000000000     110.342187312500       2.829286750000
       296    1        1.414643202228     111.756835266442       4.243930125000
       297    1        0.000000000000     110.342187312500       5.658573500000
       298    1        1.414643202228     111.756835266442       7.073216875000
       299    1        0.000000000000     110.342187312500       8.487860250000
       300    1        1.414643202228     111.756835266442       9.902503625000
       301    1        0.000000000000     113.171469639808       0.000000000000
       302    1        1.414643202228     114.586117593750       1.414643375000
       303    1        0.000000000000     113.171469639808       2.829286750000
       304    1        1.414643202228     114.586117593750       4.243930125000
       305    1        0.000000000000     113.171469639808       5.658573500000
       306    1        1.414643202228     114.586117593750       7.073216875000
       307    1        0.000000000000     113.171469639808       8.487860250000
       308    1        1.414643202228     114.586117593750       9.902503625000
       309    1        0.000000000000     116.000765547692       0.000000000000
       310    1        1.414643202228     117.415399921058       1.414643375000
       311    1        0.000000000000     116.000765547692       2.829286750000
       312    1        1.414643202228     117.415399921058       4.243930125000
       313    1        0.000000000000     116.000765547692       5.658573500000
       314    1        1.414643202228     117.415399921058       7.073216875000
       315    1        0.000000000000     116.000765547692       8.487860250000
       316    1        1.414643202228     117.415399921058       9.902503625000
       317    1        0.000000000000     118.830047875000       0.000000000000
       318    1        1.414643202228     120.244695828942       1.414643375000
       319    1        0.000000000000     118.830047875000       2.829286750000
       320    1        1.414643202228     120.244695828942       4.243930125000
       321    1        0.000000000000     118.830047875000       5.658573500000
       322    1        1.414643202228     120.244695828942       7.073216875000
       323    1        0.000000000000     118.830047875000       8.487860250000
       324    1        1.414643202228     120.244695828942       9.902503625000
       325    1        0.000000000000     121.659330202308       0.000000000000
       326    1        1.414643202228     123.073978156250       1.414643375000
       327    1        0.000000000000     121.659330202308       2.829286750000
       328    1        1.414643202228     123.073978156250       4.243930125000
       329    1        0.000000000000     121.659330202308       5.658573500000
       330    1        1.414643202228     123.073978156250       7.073216875000
       331    1        0.000000000000     121.659330202308       8.487860250000
       332    1        1.414643202228     123.073978156250       9.902503625000
       333    1        0.000000000000     124.488626110192       0.000000000000
       334    1        1.414643202228     125.903260483558       1.414643375000
       335    1        0.000000000000     124.488626110192       2.829286750000
       336    1        1.414643202228     125.903260483558       4.243930125000
       337    1        0.000000000000     124.488626110192       5.658573500000
       338    1        1.414643202228     125.903260483558       7.073216875000
       339    1        0.000000000000     124.488626110192       8.487860250000
       340    1        1.414643202228     125.903260483558       9.902503625000
       341    1        0.000000000000     127.317908437500       0.000000000000
       342    1        1.414643202228     128.732556391442       1.414643375000
       343    1        0.000000000000     127.317908437500       2.829286750000
       344    1        1.414643202228     128.732556391442       4.243930125000
       345    1        0.000000000000     127.317908437500       5.658573500000
       346    1        1.414643202228     128.732556391442       7.073216875000
       347    1        0.000000000000     127.317908437500       8.487860250000
       348    1        1.414643202228     128.732556391442       9.902503625000
       349    1        0.000000000000     130.147190764808       0.000000000000
       350    1        1.414643202228     131.561838718750       1.414643375000
       351    1        0.000000000000     130.147190764808       2.829286750000
       352    1        1.414643202228     131.561838718750       4.243930125000
       353    1        0.000000000000     130.147190764808       5.658573500000
       354    1        1.414643202228     131.561838718750       7.073216875000
       355    1        0.000000000000     130.147190764808       8.487860250000
       356    1        1.414643202228     131.561838718750       9.902503625000
       357    1        0.000000000000     132.976486672692       0.000000000000
       358    1        1.414643202228     134.391121046058       1.414643375000
       359    1        0.000000000000     132.976486672692       2.829286750000
       360    1        1.414643202228     134.391121046058       4.243930125000
       361    1        0.000000000000     132.976486672692       5.658573500000
       362    1        1.414643202228     134.391121046058       7.073216875000
       363    1        0.000000000000     132.976486672692       8.487860250000
       364    1        1.414643202228     134.391121046058       9.902503625000
       365    1        2.829287196657       0.000000000000       0.000000000000
       366    1        4.243930398886       1.414643879769       1.414643375000
       367    1        2.829287196657       0.000000000000       2.829286750000
       368    1        4.243930398886       1.414643879769       4.243930125000
       369    1        2.829287196657       0.000000000000       5.658573500000
       370    1        4.243930398886       1.414643879769       7.073216875000