 # File generated with Atomsk by user on 2025-02-06 11:57:42
  
       21308  atoms
           2  atom types
 
      0.000000000000     139.220032000000  xlo xhi
      0.000000000000     135.805769000000  ylo yhi
      0.000000000000      22.634294000000  zlo zhi
 
Masses
 
            1   55.84500000             # Fe
            2   1.00800000              # H
 
Atoms # atomic
 
         1    1       30.297895126188       0.717522662218       0.705666926434
         2    1       31.712538328416       2.132166541987       2.120310301434
         3    1       30.297895126188       0.717522662218       3.534953676434
         4    1       31.712538328416       2.132166541987       4.949597051434
         5    1       30.297895126188       0.717522662218       6.364240426434
         6    1       31.712538328416       2.132166541987       7.778883801434
         7    1       30.297895126188       0.717522662218       9.193527176434
         8    1       31.712538328416       2.132166541987      10.608170551434
         9    1       30.297895126188       3.546809063698       0.705666926434
        10    1       31.712538328416       4.961452943468       2.120310301434
        11    1       30.297895126188       3.546809063698       3.534953676434
        12    1       31.712538328416       4.961452943468       4.949597051434
        13    1       30.297895126188       3.546809063698       6.364240426434
        14    1       31.712538328416       4.961452943468       7.778883801434
        15    1       30.297895126188       3.546809063698       9.193527176434
        16    1       31.712538328416       4.961452943468      10.608170551434
        17    1       30.297895126188       6.376096823237       0.705666926434
        18    1       31.712538328416       7.790739344948       2.120310301434
        19    1       30.297895126188       6.376096823237       3.534953676434
        20    1       31.712538328416       7.790739344948       4.949597051434
        21    1       30.297895126188       6.376096823237       6.364240426434
        22    1       31.712538328416       7.790739344948       7.778883801434
        23    1       30.297895126188       6.376096823237       9.193527176434
        24    1       31.712538328416       7.790739344948      10.608170551434
        25    1       30.297895126188       9.205383224718       0.705666926434
        26    1       31.712538328416      10.620027104487       2.120310301434
        27    1       30.297895126188       9.205383224718       3.534953676434
        28    1       31.712538328416      10.620027104487       4.949597051434
        29    1       30.297895126188       9.205383224718       6.364240426434
        30    1       31.712538328416      10.620027104487       7.778883801434
        31    1       30.297895126188       9.205383224718       9.193527176434
        32    1       31.712538328416      10.620027104487      10.608170551434
        33    1       30.297895126188      12.034669626198       0.705666926434
        34    1       31.712538328416      13.449313505968       2.120310301434
        35    1       30.297895126188      12.034669626198       3.534953676434
        36    1       31.712538328416      13.449313505968       4.949597051434
        37    1       30.297895126188      12.034669626198       6.364240426434
        38    1       31.712538328416      13.449313505968       7.778883801434
        39    1       30.297895126188      12.034669626198       9.193527176434
        40    1       31.712538328416      13.449313505968      10.608170551434
        41    1       30.297895126188      14.863961459910       0.705666926434
        42    1       31.712538328416      16.278595833275       2.120310301434
        43    1       30.297895126188      14.863961459910       3.534953676434
        44    1       31.712538328416      16.278595833275       4.949597051434
        45    1       30.297895126188      14.863961459910       6.364240426434
        46    1       31.712538328416      16.278595833275       7.778883801434
        47    1       30.297895126188      14.863961459910       9.193527176434
        48    1       31.712538328416      16.278595833275      10.608170551434
        49    1       30.297895126188      17.693243787218       0.705666926434
        50    1       31.712538328416      19.107891741160       2.120310301434
        51    1       30.297895126188      17.693243787218       3.534953676434
        52    1       31.712538328416      19.107891741160       4.949597051434
        53    1       30.297895126188      17.693243787218       6.364240426434
        54    1       31.712538328416      19.107891741160       7.778883801434
        55    1       30.297895126188      17.693243787218       9.193527176434
        56    1       31.712538328416      19.107891741160      10.608170551434
        57    1       30.297895126188      20.522526114525       0.705666926434
        58    1       31.712538328416      21.937174068468       2.120310301434
        59    1       30.297895126188      20.522526114525       3.534953676434
        60    1       31.712538328416      21.937174068468       4.949597051434
        61    1       30.297895126188      20.522526114525       6.364240426434
        62    1       31.712538328416      21.937174068468       7.778883801434
        63    1       30.297895126188      20.522526114525       9.193527176434
        64    1       31.712538328416      21.937174068468      10.608170551434
        65    1       30.297895126188      23.351822022410       0.705666926434
        66    1       31.712538328416      24.766456395775       2.120310301434
        67    1       30.297895126188      23.351822022410       3.534953676434
        68    1       31.712538328416      24.766456395775       4.949597051434
        69    1       30.297895126188      23.351822022410       6.364240426434
        70    1       31.712538328416      24.766456395775       7.778883801434
        71    1       30.297895126188      23.351822022410       9.193527176434
        72    1       31.712538328416      24.766456395775      10.608170551434
        73    1       30.297895126188      26.181104349718       0.705666926434
        74    1       31.712538328416      27.595752303660       2.120310301434
        75    1       30.297895126188      26.181104349718       3.534953676434
        76    1       31.712538328416      27.595752303660       4.949597051434
        77    1       30.297895126188      26.181104349718       6.364240426434
        78    1       31.712538328416      27.595752303660       7.778883801434
        79    1       30.297895126188      26.181104349718       9.193527176434
        80    1       31.712538328416      27.595752303660      10.608170551434
        81    1       30.297895126188      29.010386677025       0.705666926434
        82    1       31.712538328416      30.425034630968       2.120310301434
        83    1       30.297895126188      29.010386677025       3.534953676434
        84    1       31.712538328416      30.425034630968       4.949597051434
        85    1       30.297895126188      29.010386677025       6.364240426434
        86    1       31.712538328416      30.425034630968       7.778883801434
        87    1       30.297895126188      29.010386677025       9.193527176434
        88    1       31.712538328416      30.425034630968      10.608170551434
        89    1       30.297895126188      31.839682584910       0.705666926434
        90    1       31.712538328416      33.254316958275       2.120310301434
        91    1       30.297895126188      31.839682584910       3.534953676434
        92    1       31.712538328416      33.254316958275       4.949597051434
        93    1       30.297895126188      31.839682584910       6.364240426434
        94    1       31.712538328416      33.254316958275       7.778883801434
        95    1       30.297895126188      31.839682584910       9.193527176434
        96    1       31.712538328416      33.254316958275      10.608170551434
        97    1       30.297895126188      34.668964912218       0.705666926434
        98    1       31.712538328416      36.083612866160       2.120310301434
        99    1       30.297895126188      34.668964912218       3.534953676434
       100    1       31.712538328416      36.083612866160       4.949597051434
       101    1       30.297895126188      34.668964912218       6.364240426434
       102    1       31.712538328416      36.083612866160       7.778883801434
       103    1       30.297895126188      34.668964912218       9.193527176434
       104    1       31.712538328416      36.083612866160      10.608170551434
       105    1       30.297895126188      37.498247239525       0.705666926434
       106    1       31.712538328416      38.912895193468       2.120310301434
       107    1       30.297895126188      37.498247239525       3.534953676434
       108    1       31.712538328416      38.912895193468       4.949597051434
       109    1       30.297895126188      37.498247239525       6.364240426434
       110    1       31.712538328416      38.912895193468       7.778883801434
       111    1       30.297895126188      37.498247239525       9.193527176434
       112    1       31.712538328416      38.912895193468      10.608170551434
       113    1       30.297895126188      40.327543147410       0.705666926434
       114    1       31.712538328416      41.742177520775       2.120310301434
       115    1       30.297895126188      40.327543147410       3.534953676434
       116    1       31.712538328416      41.742177520775       4.949597051434
       117    1       30.297895126188      40.327543147410       6.364240426434
       118    1       31.712538328416      41.742177520775       7.778883801434
       119    1       30.297895126188      40.327543147410       9.193527176434
       120    1       31.712538328416      41.742177520775      10.608170551434
       121    1       30.297895126188      43.156825474718       0.705666926434
       122    1       31.712538328416      44.571473428660       2.120310301434
       123    1       30.297895126188      43.156825474718       3.534953676434
       124    1       31.712538328416      44.571473428660       4.949597051434
       125    1       30.297895126188      43.156825474718       6.364240426434
       126    1       31.712538328416      44.571473428660       7.778883801434
       127    1       30.297895126188      43.156825474718       9.193527176434
       128    1       31.712538328416      44.571473428660      10.608170551434
       129    1       30.297895126188      45.986107802025       0.705666926434
       130    1       31.712538328416      47.400755755968       2.120310301434
       131    1       30.297895126188      45.986107802025       3.534953676434
       132    1       31.712538328416      47.400755755968       4.949597051434
       133    1       30.297895126188      45.986107802025       6.364240426434
       134    1       31.712538328416      47.400755755968       7.778883801434
       135    1       30.297895126188      45.986107802025       9.193527176434
       136    1       31.712538328416      47.400755755968      10.608170551434
       137    1       30.297895126188      48.815403709910       0.705666926434
       138    1       31.712538328416      50.230038083275       2.120310301434
       139    1       30.297895126188      48.815403709910       3.534953676434
       140    1       31.712538328416      50.230038083275       4.949597051434
       141    1       30.297895126188      48.815403709910       6.364240426434
       142    1       31.712538328416      50.230038083275       7.778883801434
       143    1       30.297895126188      48.815403709910       9.193527176434
       144    1       31.712538328416      50.230038083275      10.608170551434
       145    1       30.297895126188      51.644686037218       0.705666926434
       146    1       31.712538328416      53.059333991160       2.120310301434
       147    1       30.297895126188      51.644686037218       3.534953676434
       148    1       31.712538328416      53.059333991160       4.949597051434
       149    1       30.297895126188      51.644686037218       6.364240426434
       150    1       31.712538328416      53.059333991160       7.778883801434
       151    1       30.297895126188      51.644686037218       9.193527176434
       152    1       31.712538328416      53.059333991160      10.608170551434
       153    1       30.297895126188      54.473968364525       0.705666926434
       154    1       31.712538328416      55.888616318468       2.120310301434
       155    1       30.297895126188      54.473968364525       3.534953676434
       156    1       31.712538328416      55.888616318468       4.949597051434
       157    1       30.297895126188      54.473968364525       6.364240426434
       158    1       31.712538328416      55.888616318468       7.778883801434
       159    1       30.297895126188      54.473968364525       9.193527176434
       160    1       31.712538328416      55.888616318468      10.608170551434
       161    1       30.297895126188      57.303264272410       0.705666926434
       162    1       31.712538328416      58.717898645775       2.120310301434
       163    1       30.297895126188      57.303264272410       3.534953676434
       164    1       31.712538328416      58.717898645775       4.949597051434
       165    1       30.297895126188      57.303264272410       6.364240426434
       166    1       31.712538328416      58.717898645775       7.778883801434
       167    1       30.297895126188      57.303264272410       9.193527176434
       168    1       31.712538328416      58.717898645775      10.608170551434
       169    1       30.297895126188      60.132546599718       0.705666926434
       170    1       31.712538328416      61.547194553660       2.120310301434
       171    1       30.297895126188      60.132546599718       3.534953676434
       172    1       31.712538328416      61.547194553660       4.949597051434
       173    1       30.297895126188      60.132546599718       6.364240426434
       174    1       31.712538328416      61.547194553660       7.778883801434
       175    1       30.297895126188      60.132546599718       9.193527176434
       176    1       31.712538328416      61.547194553660      10.608170551434
       177    1       30.297895126188      62.961828927025       0.705666926434
       178    1       31.712538328416      64.376476880968       2.120310301434
       179    1       30.297895126188      62.961828927025       3.534953676434
       180    1       31.712538328416      64.376476880968       4.949597051434
       181    1       30.297895126188      62.961828927025       6.364240426434
       182    1       31.712538328416      64.376476880968       7.778883801434
       183    1       30.297895126188      62.961828927025       9.193527176434
       184    1       31.712538328416      64.376476880968      10.608170551434
       185    1       31.712538328416      72.864337443468       2.120310301434
       186    1       31.712538328416      72.864337443468       4.949597051434
       187    1       31.712538328416      72.864337443468       7.778883801434
       188    1       31.712538328416      72.864337443468      10.608170551434
       189    1       30.297895126188      74.278985397410       0.705666926434
       190    1       31.712538328416      75.693619770775       2.120310301434
       191    1       30.297895126188      74.278985397410       3.534953676434
       192    1       31.712538328416      75.693619770775       4.949597051434
       193    1       30.297895126188      74.278985397410       6.364240426434
       194    1       31.712538328416      75.693619770775       7.778883801434
       195    1       30.297895126188      74.278985397410       9.193527176434
       196    1       31.712538328416      75.693619770775      10.608170551434
       197    1       30.297895126188      77.108267724718       0.705666926434
       198    1       31.712538328416      78.522915678660       2.120310301434
       199    1       30.297895126188      77.108267724718       3.534953676434
       200    1       31.712538328416      78.522915678660       4.949597051434
       201    1       30.297895126188      77.108267724718       6.364240426434
       202    1       31.712538328416      78.522915678660       7.778883801434
       203    1       30.297895126188      77.108267724718       9.193527176434
       204    1       31.712538328416      78.522915678660      10.608170551434
       205    1       30.297895126188      79.937550052025       0.705666926434
       206    1       31.712538328416      81.352198005968       2.120310301434
       207    1       30.297895126188      79.937550052025       3.534953676434
       208    1       31.712538328416      81.352198005968       4.949597051434
       209    1       30.297895126188      79.937550052025       6.364240426434
       210    1       31.712538328416      81.352198005968       7.778883801434
       211    1       30.297895126188      79.937550052025       9.193527176434
       212    1       31.712538328416      81.352198005968      10.608170551434
       213    1       30.297895126188      82.766845959910       0.705666926434
       214    1       31.712538328416      84.181480333275       2.120310301434
       215    1       30.297895126188      82.766845959910       3.534953676434
       216    1       31.712538328416      84.181480333275       4.949597051434
       217    1       30.297895126188      82.766845959910       6.364240426434
       218    1       31.712538328416      84.181480333275       7.778883801434
       219    1       30.297895126188      82.766845959910       9.193527176434
       220    1       31.712538328416      84.181480333275      10.608170551434
       221    1       30.297895126188      85.596128287218       0.705666926434
       222    1       31.712538328416      87.010776241160       2.120310301434
       223    1       30.297895126188      85.596128287218       3.534953676434
       224    1       31.712538328416      87.010776241160       4.949597051434
       225    1       30.297895126188      85.596128287218       6.364240426434
       226    1       31.712538328416      87.010776241160       7.778883801434
       227    1       30.297895126188      85.596128287218       9.193527176434
       228    1       31.712538328416      87.010776241160      10.608170551434
       229    1       30.297895126188      88.425410614525       0.705666926434
       230    1       31.712538328416      89.840058568468       2.120310301434
       231    1       30.297895126188      88.425410614525       3.534953676434
       232    1       31.712538328416      89.840058568468       4.949597051434
       233    1       30.297895126188      88.425410614525       6.364240426434
       234    1       31.712538328416      89.840058568468       7.778883801434
       235    1       30.297895126188      88.425410614525       9.193527176434
       236    1       31.712538328416      89.840058568468      10.608170551434
       237    1       30.297895126188      91.254706522410       0.705666926434
       238    1       31.712538328416      92.669340895775       2.120310301434
       239    1       30.297895126188      91.254706522410       3.534953676434
       240    1       31.712538328416      92.669340895775       4.949597051434
       241    1       30.297895126188      91.254706522410       6.364240426434
       242    1       31.712538328416      92.669340895775       7.778883801434
       243    1       30.297895126188      91.254706522410       9.193527176434
       244    1       31.712538328416      92.669340895775      10.608170551434
       245    1       30.297895126188      94.083988849718       0.705666926434
       246    1       31.712538328416      95.498636803660       2.120310301434
       247    1       30.297895126188      94.083988849718       3.534953676434
       248    1       31.712538328416      95.498636803660       4.949597051434
       249    1       30.297895126188      94.083988849718       6.364240426434
       250    1       31.712538328416      95.498636803660       7.778883801434
       251    1       30.297895126188      94.083988849718       9.193527176434
       252    1       31.712538328416      95.498636803660      10.608170551434
       253    1       30.297895126188      96.913271177025       0.705666926434
       254    1       31.712538328416      98.327919130968       2.120310301434
       255    1       30.297895126188      96.913271177025       3.534953676434
       256    1       31.712538328416      98.327919130968       4.949597051434
       257    1       30.297895126188      96.913271177025       6.364240426434
       258    1       31.712538328416      98.327919130968       7.778883801434
       259    1       30.297895126188      96.913271177025       9.193527176434
       260    1       31.712538328416      98.327919130968      10.608170551434
       261    1       30.297895126188      99.742567084910       0.705666926434
       262    1       31.712538328416     101.157201458275       2.120310301434
       263    1       30.297895126188      99.742567084910       3.534953676434
       264    1       31.712538328416     101.157201458275       4.949597051434
       265    1       30.297895126188      99.742567084910       6.364240426434
       266    1       31.712538328416     101.157201458275       7.778883801434
       267    1       30.297895126188      99.742567084910       9.193527176434
       268    1       31.712538328416     101.157201458275      10.608170551434
       269    1       30.297895126188     102.571849412218       0.705666926434
       270    1       31.712538328416     103.986497366160       2.120310301434
       271    1       30.297895126188     102.571849412218       3.534953676434
       272    1       31.712538328416     103.986497366160       4.949597051434
       273    1       30.297895126188     102.571849412218       6.364240426434
       274    1       31.712538328416     103.986497366160       7.778883801434
       275    1       30.297895126188     102.571849412218       9.193527176434
       276    1       31.712538328416     103.986497366160      10.608170551434
       277    1       30.297895126188     105.401131739525       0.705666926434
       278    1       31.712538328416     106.815779693468       2.120310301434
       279    1       30.297895126188     105.401131739525       3.534953676434
       280    1       31.712538328416     106.815779693468       4.949597051434
       281    1       30.297895126188     105.401131739525       6.364240426434
       282    1       31.712538328416     106.815779693468       7.778883801434
       283    1       30.297895126188     105.401131739525       9.193527176434
       284    1       31.712538328416     106.815779693468      10.608170551434
       285    1       30.297895126188     108.230427647410       0.705666926434
       286    1       31.712538328416     109.645062020775       2.120310301434
       287    1       30.297895126188     108.230427647410       3.534953676434
       288    1       31.712538328416     109.645062020775       4.949597051434
       289    1       30.297895126188     108.230427647410       6.364240426434
       290    1       31.712538328416     109.645062020775       7.778883801434
       291    1       30.297895126188     108.230427647410       9.193527176434
       292    1       31.712538328416     109.645062020775      10.608170551434
       293    1       30.297895126188     111.059709974718       0.705666926434
       294    1       31.712538328416     112.474357928660       2.120310301434
       295    1       30.297895126188     111.059709974718       3.534953676434
       296    1       31.712538328416     112.474357928660       4.949597051434
       297    1       30.297895126188     111.059709974718       6.364240426434
       298    1       31.712538328416     112.474357928660       7.778883801434
       299    1       30.297895126188     111.059709974718       9.193527176434
       300    1       31.712538328416     112.474357928660      10.608170551434
       301    1       30.297895126188     113.888992302025       0.705666926434
       302    1       31.712538328416     115.303640255968       2.120310301434
       303    1       30.297895126188     113.888992302025       3.534953676434
       304    1       31.712538328416     115.303640255968       4.949597051434
       305    1       30.297895126188     113.888992302025       6.364240426434
       306    1       31.712538328416     115.303640255968       7.778883801434
       307    1       30.297895126188     113.888992302025       9.193527176434
       308    1       31.712538328416     115.303640255968      10.608170551434
       309    1       30.297895126188     116.718288209910       0.705666926434
       310    1       31.712538328416     118.132922583275       2.120310301434
       311    1       30.297895126188     116.718288209910       3.534953676434
       312    1       31.712538328416     118.132922583275       4.949597051434
       313    1       30.297895126188     116.718288209910       6.364240426434
       314    1       31.712538328416     118.132922583275       7.778883801434
       315    1       30.297895126188     116.718288209910       9.193527176434
       316    1       31.712538328416     118.132922583275      10.608170551434
       317    1       30.297895126188     119.547570537218       0.705666926434
       318    1       31.712538328416     120.962218491160       2.120310301434
       319    1       30.297895126188     119.547570537218       3.534953676434
       320    1       31.712538328416     120.962218491160       4.949597051434
       321    1       30.297895126188     119.547570537218       6.364240426434
       322    1       31.712538328416     120.962218491160       7.778883801434
       323    1       30.297895126188     119.547570537218       9.193527176434
       324    1       31.712538328416     120.962218491160      10.608170551434
       325    1       30.297895126188     122.376852864525       0.705666926434
       326    1       31.712538328416     123.791500818468       2.120310301434
       327    1       30.297895126188     122.376852864525       3.534953676434
       328    1       31.712538328416     123.791500818468       4.949597051434
       329    1       30.297895126188     122.376852864525       6.364240426434
       330    1       31.712538328416     123.791500818468       7.778883801434
       331    1       30.297895126188     122.376852864525       9.193527176434
       332    1       31.712538328416     123.791500818468      10.608170551434
       333    1       30.297895126188     125.206148772410       0.705666926434
       334    1       31.712538328416     126.620783145775       2.120310301434
       335    1       30.297895126188     125.206148772410       3.534953676434
       336    1       31.712538328416     126.620783145775       4.949597051434
       337    1       30.297895126188     125.206148772410       6.364240426434
       338    1       31.712538328416     126.620783145775       7.778883801434
       339    1       30.297895126188     125.206148772410       9.193527176434
       340    1       31.712538328416     126.620783145775      10.608170551434
       341    1       30.297895126188     128.035431099718       0.705666926434
       342    1       31.712538328416     129.450079053660       2.120310301434
       343    1       30.297895126188     128.035431099718       3.534953676434
       344    1       31.712538328416     129.450079053660       4.949597051434
       345    1       30.297895126188     128.035431099718       6.364240426434
       346    1       31.712538328416     129.450079053660       7.778883801434
       347    1       30.297895126188     128.035431099718       9.193527176434
       348    1       31.712538328416     129.450079053660      10.608170551434
       349    1       30.297895126188     130.864713427025       0.705666926434
       350    1       31.712538328416     132.279361380968       2.120310301434
       351    1       30.297895126188     130.864713427025       3.534953676434
       352    1       31.712538328416     132.279361380968       4.949597051434
       353    1       30.297895126188     130.864713427025       6.364240426434
       354    1       31.712538328416     132.279361380968       7.778883801434
       355    1       30.297895126188     130.864713427025       9.193527176434
       356    1       31.712538328416     132.279361380968      10.608170551434
       357    1       30.297895126188     133.694009334910       0.705666926434
       358    1       31.712538328416     135.108643708275       2.120310301434
       359    1       30.297895126188     133.694009334910       3.534953676434
       360    1       31.712538328416     135.108643708275       4.949597051434
       361    1       30.297895126188     133.694009334910       6.364240426434
       362    1       31.712538328416     135.108643708275       7.778883801434
       363    1       30.297895126188     133.694009334910       9.193527176434
       364    1       31.712538328416     135.108643708275      10.608170551434
       365    1       33.127182322845       0.717522662218       0.705666926434
       366    1       34.541825525073       2.132166541987       2.120310301434
       367    1       33.127182322845       0.717522662218       3.534953676434
       368    1       34.541825525073       2.132166541987       4.949597051434
       369    1       33.127182322845       0.717522662218       6.364240426434
       370    1       34.541825525073       2.132166541987       7.778883801434