LAMMPS data file via write_data, version 29 Aug 2024, timestep = 9, units = metal

288 atoms
1 atom types

0 11.317147 xlo xhi
0 25.963582 ylo yhi
0 11.317147 zlo zhi

Masses

1 55.8

Atoms # atomic

1 1 0 0 0 0 0 0
2 1 1.414643375 1.414643557616 1.414643375 0 0 0
3 1 0 0 2.82928675 0 0 0
4 1 1.414643375 1.414643557616 4.243930125 0 0 0
9 1 0 2.82928660596 0 0 0 0
10 1 1.4146433749999958 4.272821921736877 1.4146433750000014 0 0 0
11 1 0 2.82928660596 2.82928675 0 0 0
12 1 1.414643374999999 4.2728219217368775 4.243930125000005 0 0 0
73 1 2.82928675 0 0 0 0 0
74 1 4.243930125 1.414643557616 1.414643375 0 0 0
75 1 2.82928675 0 2.82928675 0 0 0
76 1 4.243930125 1.414643557616 4.243930125 0 0 0
81 1 2.82928675 2.82928660596 0 0 0 0
82 1 4.243930124999999 4.2728219217368775 1.4146433749999983 0 0 0
83 1 2.82928675 2.82928660596 2.82928675 0 0 0
84 1 4.243930125000004 4.2728219217368775 4.243930125000001 0 0 0
145 1 5.6585735 0 0 0 0 0
146 1 7.073216875 1.414643557616 1.414643375 0 0 0
147 1 5.6585735 0 2.82928675 0 0 0
148 1 7.073216875 1.414643557616 4.243930125 0 0 0
153 1 5.6585735 2.82928660596 0 0 0 0
154 1 7.073216874999999 4.272821921736879 1.4146433749999998 0 0 0
155 1 5.6585735 2.82928660596 2.82928675 0 0 0
156 1 7.073216875000002 4.272821921736879 4.243930125000002 0 0 0
217 1 8.48786025 0 0 0 0 0
218 1 9.902503625 1.414643557616 1.414643375 0 0 0
219 1 8.48786025 0 2.82928675 0 0 0
220 1 9.902503625 1.414643557616 4.243930125 0 0 0
225 1 8.48786025 2.82928660596 0 0 0 0
226 1 9.902503625000001 4.272821921736881 1.4146433749999971 0 0 0
227 1 8.48786025 2.82928660596 2.82928675 0 0 0
228 1 9.902503625000003 4.2728219217368775 4.243930125000004 0 0 0
17 1 11.317146999999995 5.717146011690096 2.1722152732580516e-15 -1 0 0
18 1 1.4146433749999991 7.16585987661236 1.4146433749999947 0 0 0
19 1 0 5.717146011690094 2.8292867499999934 0 0 0
20 1 1.4146433750000036 7.165859876612363 4.243930125000003 0 0 0
25 1 11.317146999999997 8.615346758762206 11.317146999999999 -1 0 -1
27 1 0 8.61534675876221 2.8292867500000005 0 0 0
89 1 2.829286750000005 5.717146011690096 4.7455165004812096e-15 0 0 0
90 1 4.2439301249999986 7.165859876612357 1.4146433749999983 0 0 0
91 1 2.829286750000003 5.7171460116900965 2.829286749999997 0 0 0
92 1 4.243930125000003 7.165859876612361 4.243930124999996 0 0 0
97 1 2.8292867500000005 8.615346758762211 11.317146999999997 0 0 -1
99 1 2.8292867499999996 8.615346758762211 2.829286750000006 0 0 0
161 1 5.658573499999998 5.717146011690098 4.089451249893959e-15 0 0 0
162 1 7.073216874999999 7.165859876612363 1.4146433749999983 0 0 0
163 1 5.658573499999996 5.717146011690093 2.8292867499999974 0 0 0
164 1 7.073216875000004 7.165859876612363 4.243930124999998 0 0 0
169 1 5.658573500000005 8.6153467587622 0 0 0 0
171 1 5.6585735 8.615346758762204 2.8292867499999996 0 0 0
233 1 8.487860250000004 5.717146011690096 11.317146999999999 0 0 -1
234 1 9.902503624999998 7.165859876612354 1.414643374999997 0 0 0
235 1 8.48786025 5.717146011690104 2.8292867499999983 0 0 0
236 1 9.902503624999998 7.165859876612366 4.2439301249999986 0 0 0
241 1 8.487860249999997 8.615346758762206 11.317146999999993 0 0 -1
243 1 8.48786025 8.615346758762206 2.8292867500000045 0 0 0
26 1 1.4146433750000023 10.065688805945365 1.4146433749999996 0 0 0
28 1 1.4146433750000043 10.065688805945364 4.2439301249999986 0 0 0
33 1 11.317146999999999 11.515282185446088 11.317146999999999 -1 0 -1
34 1 1.4146433749999991 12.965251347342098 1.414643375000001 0 0 0
35 1 4.887038716298721e-16 11.515282185446084 2.829286750000002 0 0 0
36 1 1.4146433750000016 12.965251347342102 4.243930125000006 0 0 0
98 1 4.243930124999995 10.065688805945369 1.4146433750000007 0 0 0
100 1 4.243930124999993 10.065688805945365 4.2439301249999986 0 0 0
105 1 2.82928675 11.515282185446088 1.2001003244997027e-15 0 0 0
106 1 4.243930125 12.965251347342098 1.414643374999999 0 0 0
107 1 2.829286750000003 11.515282185446083 2.8292867500000027 0 0 0
108 1 4.243930125000001 12.9652513473421 4.243930125000001 0 0 0
170 1 7.073216875000002 10.065688805945365 1.414643374999997 0 0 0
172 1 7.073216875000007 10.065688805945362 4.243930124999997 0 0 0
177 1 5.658573500000002 11.515282185446088 11.317146999999995 0 0 -1
178 1 7.073216875 12.965251347342095 1.414643374999998 0 0 0
179 1 5.658573499999992 11.515282185446086 2.829286750000004 0 0 0
180 1 7.073216874999997 12.965251347342102 4.243930124999999 0 0 0
242 1 9.902503625000003 10.065688805945365 1.414643375000002 0 0 0
244 1 9.902503625000001 10.065688805945364 4.243930124999992 0 0 0
249 1 8.487860249999999 11.515282185446088 11.317146999999997 0 0 -1
250 1 9.902503625000003 12.965251347342098 1.414643375000003 0 0 0
251 1 8.487860250000004 11.515282185446084 2.829286750000002 0 0 0
252 1 9.902503625 12.965251347342098 4.243930124999999 0 0 0
41 1 3.327350529677661e-15 14.415788416040009 2.7358493903293508e-15 0 0 0
42 1 1.4146433750000027 15.86706508827029 1.414643375000003 0 0 0
43 1 1.3984549277466614e-15 14.415788416040007 2.829286750000003 0 0 0
44 1 1.4146433750000054 15.867065088270284 4.243930124999996 0 0 0
113 1 2.8292867499999987 14.41578841604001 11.317146999999997 0 0 -1
114 1 4.243930124999997 15.86706508827029 1.4146433750000045 0 0 0
115 1 2.8292867499999974 14.415788416040014 2.8292867500000054 0 0 0
116 1 4.243930125 15.867065088270286 4.2439301249999986 0 0 0
185 1 5.658573499999998 14.415788416040007 11.317146999999997 0 0 -1
186 1 7.073216874999998 15.86706508827029 1.4146433750000003 0 0 0
187 1 5.658573499999991 14.415788416040003 2.829286750000007 0 0 0
188 1 7.073216875000001 15.86706508827029 4.243930125000004 0 0 0
257 1 8.487860249999997 14.415788416040005 11.317146999999997 0 0 -1
258 1 9.902503625000005 15.86706508827029 1.414643375000003 0 0 0
259 1 8.487860250000006 14.415788416040005 2.8292867500000067 0 0 0
260 1 9.902503624999996 15.867065088270286 4.243930125000002 0 0 0
49 1 11.317146999999999 17.320372336294792 0 -1 0 0
50 1 1.414643375000001 18.77525617443477 1.4146433750000003 0 0 0
51 1 4.852509087376525e-16 17.320372336294795 2.829286749999997 0 0 0
52 1 1.4146433750000011 18.77525617443477 4.243930125000003 0 0 0
57 1 0 20.226214540221253 3.578966710535356e-15 0 0 0
59 1 3.4849572213977253e-15 20.226214540221253 2.8292867499999965 0 0 0
121 1 2.82928675 17.32037233629479 11.317146999999999 0 0 -1
122 1 4.243930125000004 18.77525617443477 1.414643375000003 0 0 0
123 1 2.8292867500000014 17.320372336294792 2.8292867499999974 0 0 0
124 1 4.243930125000003 18.775256174434766 4.243930125000006 0 0 0
129 1 2.829286749999999 20.226214540221253 11.317146999999999 0 0 -1
131 1 2.8292867499999956 20.226214540221253 2.829286749999997 0 0 0
193 1 5.6585735 17.320372336294795 11.317146999999999 0 0 -1
194 1 7.073216875 18.775256174434773 1.4146433749999998 0 0 0
195 1 5.6585735 17.3203723362948 2.8292867500000005 0 0 0
196 1 7.073216874999994 18.775256174434762 4.243930125000002 0 0 0
201 1 5.6585735000000055 20.22621454022125 1.1385395776285881e-15 0 0 0
203 1 5.658573500000003 20.226214540221253 2.829286749999996 0 0 0
265 1 8.487860249999999 17.320372336294795 11.317146999999999 0 0 -1
266 1 9.902503625000001 18.77525617443477 1.414643375000003 0 0 0
267 1 8.487860249999999 17.3203723362948 2.829286749999997 0 0 0
268 1 9.902503625000003 18.77525617443477 4.243930125000002 0 0 0
273 1 8.487860249999999 20.226214540221253 2.662534110739107e-15 0 0 0
275 1 8.487860249999999 20.226214540221253 2.829286749999997 0 0 0
58 1 1.4146433750000011 21.668752272730696 1.4146433750000036 0 0 0
60 1 1.414643375000001 21.668752272730696 4.243930125 0 0 0
65 1 0 23.13429539404 0 0 0 0
66 1 1.414643375 24.548937423841 1.414643375 0 0 0
67 1 0 23.13429539404 2.82928675 0 0 0
68 1 1.414643375 24.548937423841 4.243930125 0 0 0
130 1 4.243930125 21.6687522727307 1.4146433750000058 0 0 0
132 1 4.243930125000003 21.668752272730703 4.243930124999998 0 0 0
137 1 2.82928675 23.13429539404 0 0 0 0
138 1 4.243930125 24.548937423841 1.414643375 0 0 0
139 1 2.82928675 23.13429539404 2.82928675 0 0 0
140 1 4.243930125 24.548937423841 4.243930125 0 0 0
202 1 7.073216874999998 21.668752272730696 1.414643375000001 0 0 0
204 1 7.0732168750000035 21.668752272730696 4.243930124999999 0 0 0
209 1 5.6585735 23.13429539404 0 0 0 0
210 1 7.073216875 24.548937423841 1.414643375 0 0 0
211 1 5.6585735 23.13429539404 2.82928675 0 0 0
212 1 7.073216875 24.548937423841 4.243930125 0 0 0
274 1 9.902503625000001 21.668752272730696 1.4146433750000016 0 0 0
276 1 9.902503625 21.6687522727307 4.243930125000002 0 0 0
281 1 8.48786025 23.13429539404 0 0 0 0
282 1 9.902503625 24.548937423841 1.414643375 0 0 0
283 1 8.48786025 23.13429539404 2.82928675 0 0 0
284 1 9.902503625 24.548937423841 4.243930125 0 0 0
5 1 0 0 5.6585735 0 0 0
6 1 1.414643375 1.414643557616 7.073216875 0 0 0
7 1 0 0 8.48786025 0 0 0
8 1 1.414643375 1.414643557616 9.902503625 0 0 0
13 1 0 2.82928660596 5.6585735 0 0 0
14 1 1.4146433749999958 4.272821921736878 7.073216874999996 0 0 0
15 1 0 2.82928660596 8.48786025 0 0 0
16 1 1.4146433750000016 4.272821921736879 9.902503625000003 0 0 0
77 1 2.82928675 0 5.6585735 0 0 0
78 1 4.243930125 1.414643557616 7.073216875 0 0 0
79 1 2.82928675 0 8.48786025 0 0 0
80 1 4.243930125 1.414643557616 9.902503625 0 0 0
85 1 2.82928675 2.82928660596 5.6585735 0 0 0
86 1 4.243930124999999 4.272821921736878 7.073216874999999 0 0 0
87 1 2.82928675 2.82928660596 8.48786025 0 0 0
88 1 4.243930124999999 4.272821921736879 9.902503625 0 0 0
149 1 5.6585735 0 5.6585735 0 0 0
150 1 7.073216875 1.414643557616 7.073216875 0 0 0
151 1 5.6585735 0 8.48786025 0 0 0
152 1 7.073216875 1.414643557616 9.902503625 0 0 0
157 1 5.6585735 2.82928660596 5.6585735 0 0 0
158 1 7.073216875000002 4.272821921736881 7.073216875000001 0 0 0
159 1 5.6585735 2.82928660596 8.48786025 0 0 0
160 1 7.073216875000005 4.272821921736879 9.902503625000001 0 0 0
221 1 8.48786025 0 5.6585735 0 0 0
222 1 9.902503625 1.414643557616 7.073216875 0 0 0
223 1 8.48786025 0 8.48786025 0 0 0
224 1 9.902503625 1.414643557616 9.902503625 0 0 0
229 1 8.48786025 2.82928660596 5.6585735 0 0 0
230 1 9.902503625000001 4.272821921736884 7.073216875000003 0 0 0
231 1 8.48786025 2.82928660596 8.48786025 0 0 0
232 1 9.902503624999996 4.272821921736884 9.902503625000001 0 0 0
21 1 1.7760891608464763e-15 5.717146011690096 5.658573500000003 0 0 0
22 1 1.4146433750000003 7.165859876612367 7.073216874999999 0 0 0
23 1 11.317146999999997 5.717146011690091 8.487860249999999 -1 0 0
24 1 1.4146433749999985 7.165859876612363 9.902503625000007 0 0 0
29 1 0 8.615346758762206 5.658573500000005 0 0 0
31 1 5.308623640398471e-16 8.61534675876221 8.487860249999997 0 0 0
93 1 2.8292867499999996 5.717146011690093 5.658573500000004 0 0 0
94 1 4.243930125000004 7.165859876612358 7.073216875000006 0 0 0
95 1 2.829286750000007 5.7171460116900965 8.487860249999999 0 0 0
96 1 4.243930125000005 7.165859876612362 9.902503625000001 0 0 0
101 1 2.8292867499999956 8.615346758762207 5.658573499999999 0 0 0
103 1 2.8292867500000014 8.615346758762211 8.487860249999997 0 0 0
165 1 5.658573499999996 5.717146011690094 5.658573499999998 0 0 0
166 1 7.073216875 7.165859876612362 7.073216875000002 0 0 0
167 1 5.658573499999991 5.7171460116901 8.487860249999997 0 0 0
168 1 7.0732168750000035 7.165859876612364 9.902503625 0 0 0
173 1 5.6585735000000055 8.615346758762204 5.658573500000003 0 0 0
175 1 5.6585735 8.615346758762207 8.48786025 0 0 0
237 1 8.487860250000004 5.717146011690097 5.6585735000000055 0 0 0
238 1 9.902503625 7.1658598766123625 7.073216874999995 0 0 0
239 1 8.48786025 5.717146011690095 8.48786025 0 0 0
240 1 9.902503625 7.165859876612361 9.902503625000007 0 0 0
245 1 8.487860250000006 8.615346758762206 5.658573500000001 0 0 0
247 1 8.487860249999997 8.61534675876221 8.48786025 0 0 0
30 1 1.4146433750000018 10.065688805945364 7.073216875000003 0 0 0
32 1 1.4146433750000031 10.065688805945365 9.902503625000001 0 0 0
37 1 1.9290584884008875e-15 11.515282185446091 5.658573500000001 0 0 0
38 1 1.4146433749999998 12.965251347342102 7.073216875000002 0 0 0
39 1 11.317146999999999 11.515282185446091 8.487860250000002 -1 0 0
40 1 1.4146433749999998 12.965251347342097 9.902503624999996 0 0 0
102 1 4.243930125000002 10.065688805945369 7.0732168750000035 0 0 0
104 1 4.243930125000002 10.065688805945365 9.902503624999996 0 0 0
109 1 2.8292867500000005 11.515282185446088 5.6585735 0 0 0
110 1 4.243930124999999 12.965251347342104 7.073216874999998 0 0 0
111 1 2.8292867500000023 11.51528218544609 8.487860249999999 0 0 0
112 1 4.243930124999999 12.965251347342098 9.902503624999998 0 0 0
174 1 7.073216875000001 10.065688805945364 7.073216875000005 0 0 0
176 1 7.073216875 10.065688805945362 9.902503625 0 0 0
181 1 5.658573499999997 11.515282185446091 5.658573500000004 0 0 0
182 1 7.073216874999994 12.9652513473421 7.073216875000001 0 0 0
183 1 5.6585735 11.515282185446086 8.487860250000006 0 0 0
184 1 7.073216874999998 12.965251347342097 9.902503625 0 0 0
246 1 9.902503625 10.06568880594536 7.073216875 0 0 0
248 1 9.902503625000001 10.065688805945365 9.902503625000001 0 0 0
253 1 8.487860250000002 11.515282185446091 5.658573500000004 0 0 0
254 1 9.902503625000001 12.965251347342098 7.0732168750000035 0 0 0
255 1 8.48786025 11.515282185446091 8.487860250000002 0 0 0
256 1 9.902503625 12.965251347342095 9.902503624999996 0 0 0
45 1 0 14.415788416040005 5.658573500000003 0 0 0
46 1 1.4146433750000014 15.867065088270287 7.073216875000001 0 0 0
47 1 11.317146999999997 14.415788416040002 8.487860249999999 -1 0 0
48 1 1.4146433750000031 15.867065088270289 9.902503625 0 0 0
117 1 2.8292867500000023 14.415788416040005 5.658573500000005 0 0 0
118 1 4.243930124999998 15.867065088270286 7.073216875 0 0 0
119 1 2.829286750000002 14.415788416040009 8.487860249999995 0 0 0
120 1 4.243930124999995 15.867065088270287 9.902503625000003 0 0 0
189 1 5.658573499999996 14.415788416040003 5.658573500000001 0 0 0
190 1 7.073216875000003 15.867065088270289 7.073216874999992 0 0 0
191 1 5.6585734999999975 14.415788416040003 8.487860249999997 0 0 0
192 1 7.073216874999999 15.867065088270287 9.902503625000001 0 0 0
261 1 8.487860250000002 14.415788416040007 5.6585735 0 0 0
262 1 9.902503625 15.86706508827029 7.073216875000001 0 0 0
263 1 8.487860249999999 14.415788416040003 8.487860249999999 0 0 0
264 1 9.902503625000003 15.867065088270289 9.902503625 0 0 0
53 1 6.100032627406947e-17 17.320372336294795 5.658573500000002 0 0 0
54 1 1.4146433749999987 18.77525617443477 7.073216874999997 0 0 0
55 1 11.317146999999993 17.320372336294803 8.487860250000002 -1 0 0
56 1 1.4146433750000023 18.775256174434766 9.902503624999996 0 0 0
61 1 2.9176663895927e-15 20.226214540221253 5.658573500000005 0 0 0
63 1 11.317146999999997 20.22621454022125 8.48786025 -1 0 0
125 1 2.829286750000001 17.3203723362948 5.658573500000004 0 0 0
126 1 4.243930125000002 18.775256174434773 7.073216874999996 0 0 0
127 1 2.8292867499999987 17.320372336294792 8.48786025 0 0 0
128 1 4.243930125000001 18.775256174434766 9.902503625000001 0 0 0
133 1 2.8292867499999965 20.22621454022125 5.658573500000004 0 0 0
135 1 2.8292867500000005 20.22621454022125 8.48786025 0 0 0
197 1 5.658573499999997 17.320372336294803 5.658573499999999 0 0 0
198 1 7.073216874999998 18.77525617443477 7.073216874999997 0 0 0
199 1 5.6585735 17.3203723362948 8.487860249999997 0 0 0
200 1 7.073216874999997 18.775256174434766 9.902503625 0 0 0
205 1 5.658573499999998 20.226214540221246 5.6585735000000055 0 0 0
207 1 5.658573500000001 20.226214540221253 8.487860249999999 0 0 0
269 1 8.487860250000002 17.320372336294795 5.658573500000003 0 0 0
270 1 9.902503625000003 18.775256174434766 7.0732168750000035 0 0 0
271 1 8.487860250000006 17.3203723362948 8.487860249999999 0 0 0
272 1 9.902503625000001 18.77525617443477 9.902503624999992 0 0 0
277 1 8.487860250000002 20.226214540221253 5.658573500000002 0 0 0
279 1 8.487860250000008 20.22621454022125 8.487860250000002 0 0 0
62 1 1.4146433750000005 21.6687522727307 7.073216874999997 0 0 0
64 1 1.414643374999999 21.6687522727307 9.902503624999996 0 0 0
69 1 0 23.13429539404 5.6585735 0 0 0
70 1 1.414643375 24.548937423841 7.073216875 0 0 0
71 1 0 23.13429539404 8.48786025 0 0 0
72 1 1.414643375 24.548937423841 9.902503625 0 0 0
134 1 4.243930125 21.668752272730696 7.073216875 0 0 0
136 1 4.243930125000003 21.668752272730696 9.902503625000001 0 0 0
141 1 2.82928675 23.13429539404 5.6585735 0 0 0
142 1 4.243930125 24.548937423841 7.073216875 0 0 0
143 1 2.82928675 23.13429539404 8.48786025 0 0 0
144 1 4.243930125 24.548937423841 9.902503625 0 0 0
206 1 7.073216874999996 21.668752272730696 7.073216874999996 0 0 0
208 1 7.0732168749999955 21.668752272730696 9.902503625000001 0 0 0
213 1 5.6585735 23.13429539404 5.6585735 0 0 0
214 1 7.073216875 24.548937423841 7.073216875 0 0 0
215 1 5.6585735 23.13429539404 8.48786025 0 0 0
216 1 7.073216875 24.548937423841 9.902503625 0 0 0
278 1 9.902503625000001 21.668752272730696 7.073216874999998 0 0 0
280 1 9.902503625 21.6687522727307 9.902503624999998 0 0 0
285 1 8.48786025 23.13429539404 5.6585735 0 0 0
286 1 9.902503625 24.548937423841 7.073216875 0 0 0
287 1 8.48786025 23.13429539404 8.48786025 0 0 0
288 1 9.902503625 24.548937423841 9.902503625 0 0 0

Velocities

1 0 0 0
2 0 0 0
3 0 0 0
4 0 0 0
9 0 0 0
10 0 0 0
11 0 0 0
12 0 0 0
73 0 0 0
74 0 0 0
75 0 0 0
76 0 0 0
81 0 0 0
82 0 0 0
83 0 0 0
84 0 0 0
145 0 0 0
146 0 0 0
147 0 0 0
148 0 0 0
153 0 0 0
154 0 0 0
155 0 0 0
156 0 0 0
217 0 0 0
218 0 0 0
219 0 0 0
220 0 0 0
225 0 0 0
226 0 0 0
227 0 0 0
228 0 0 0
17 0 0 0
18 0 0 0
19 0 0 0
20 0 0 0
25 0 0 0
27 0 0 0
89 0 0 0
90 0 0 0
91 0 0 0
92 0 0 0
97 0 0 0
99 0 0 0
161 0 0 0
162 0 0 0
163 0 0 0
164 0 0 0
169 0 0 0
171 0 0 0
233 0 0 0
234 0 0 0
235 0 0 0
236 0 0 0
241 0 0 0
243 0 0 0
26 0 0 0
28 0 0 0
33 0 0 0
34 0 0 0
35 0 0 0
36 0 0 0
98 0 0 0
100 0 0 0
105 0 0 0
106 0 0 0
107 0 0 0
108 0 0 0
170 0 0 0
172 0 0 0
177 0 0 0
178 0 0 0
179 0 0 0
180 0 0 0
242 0 0 0
244 0 0 0
249 0 0 0
250 0 0 0
251 0 0 0
252 0 0 0
41 0 0 0
42 0 0 0
43 0 0 0
44 0 0 0
113 0 0 0
114 0 0 0
115 0 0 0
116 0 0 0
185 0 0 0
186 0 0 0
187 0 0 0
188 0 0 0
257 0 0 0
258 0 0 0
259 0 0 0
260 0 0 0
49 0 0 0
50 0 0 0
51 0 0 0
52 0 0 0
57 0 0 0
59 0 0 0
121 0 0 0
122 0 0 0
123 0 0 0
124 0 0 0
129 0 0 0
131 0 0 0
193 0 0 0
194 0 0 0
195 0 0 0
196 0 0 0
201 0 0 0
203 0 0 0
265 0 0 0
266 0 0 0
267 0 0 0
268 0 0 0
273 0 0 0
275 0 0 0
58 0 0 0
60 0 0 0
65 0 0 0
66 0 0 0
67 0 0 0
68 0 0 0
130 0 0 0
132 0 0 0
137 0 0 0
138 0 0 0
139 0 0 0
140 0 0 0
202 0 0 0
204 0 0 0
209 0 0 0
210 0 0 0
211 0 0 0
212 0 0 0
274 0 0 0
276 0 0 0
281 0 0 0
282 0 0 0
283 0 0 0
284 0 0 0
5 0 0 0
6 0 0 0
7 0 0 0
8 0 0 0
13 0 0 0
14 0 0 0
15 0 0 0
16 0 0 0
77 0 0 0
78 0 0 0
79 0 0 0
80 0 0 0
85 0 0 0
86 0 0 0
87 0 0 0
88 0 0 0
149 0 0 0
150 0 0 0
151 0 0 0
152 0 0 0
157 0 0 0
158 0 0 0
159 0 0 0
160 0 0 0
221 0 0 0
222 0 0 0
223 0 0 0
224 0 0 0
229 0 0 0
230 0 0 0
231 0 0 0
232 0 0 0
21 0 0 0
22 0 0 0
23 0 0 0
24 0 0 0
29 0 0 0
31 0 0 0
93 0 0 0
94 0 0 0
95 0 0 0
96 0 0 0
101 0 0 0
103 0 0 0
165 0 0 0
166 0 0 0
167 0 0 0
168 0 0 0
173 0 0 0
175 0 0 0
237 0 0 0
238 0 0 0
239 0 0 0
240 0 0 0
245 0 0 0
247 0 0 0
30 0 0 0
32 0 0 0
37 0 0 0
38 0 0 0
39 0 0 0
40 0 0 0
102 0 0 0
104 0 0 0
109 0 0 0
110 0 0 0
111 0 0 0
112 0 0 0
174 0 0 0
176 0 0 0
181 0 0 0
182 0 0 0
183 0 0 0
184 0 0 0
246 0 0 0
248 0 0 0
253 0 0 0
254 0 0 0
255 0 0 0
256 0 0 0
45 0 0 0
46 0 0 0
47 0 0 0
48 0 0 0
117 0 0 0
118 0 0 0
119 0 0 0
120 0 0 0
189 0 0 0
190 0 0 0
191 0 0 0
192 0 0 0
261 0 0 0
262 0 0 0
263 0 0 0
264 0 0 0
53 0 0 0
54 0 0 0
55 0 0 0
56 0 0 0
61 0 0 0
63 0 0 0
125 0 0 0
126 0 0 0
127 0 0 0
128 0 0 0
133 0 0 0
135 0 0 0
197 0 0 0
198 0 0 0
199 0 0 0
200 0 0 0
205 0 0 0
207 0 0 0
269 0 0 0
270 0 0 0
271 0 0 0
272 0 0 0
277 0 0 0
279 0 0 0
62 0 0 0
64 0 0 0
69 0 0 0
70 0 0 0
71 0 0 0
72 0 0 0
134 0 0 0
136 0 0 0
141 0 0 0
142 0 0 0
143 0 0 0
144 0 0 0
206 0 0 0
208 0 0 0
213 0 0 0
214 0 0 0
215 0 0 0
216 0 0 0
278 0 0 0
280 0 0 0
285 0 0 0
286 0 0 0
287 0 0 0
288 0 0 0
