LAMMPS data file via write_data, version 29 Aug 2024, timestep = 7, units = metal

288 atoms
1 atom types

0 11.317147 xlo xhi
0 28.463582 ylo yhi
0 11.317147 zlo zhi

Masses

1 55.8

Atoms # atomic

1 1 0 0 0 0 0 0
2 1 1.414643375 1.414643557616 1.414643375 0 0 0
3 1 0 0 2.82928675 0 0 0
4 1 1.414643375 1.414643557616 4.243930125 0 0 0
9 1 0 2.82928660596 0 0 0 0
10 1 1.4146433749999976 4.229190219979433 1.4146433750000016 0 0 0
11 1 0 2.82928660596 2.82928675 0 0 0
12 1 1.4146433749999991 4.229190219979424 4.243930124999998 0 0 0
73 1 2.82928675 0 0 0 0 0
74 1 4.243930125 1.414643557616 1.414643375 0 0 0
75 1 2.82928675 0 2.82928675 0 0 0
76 1 4.243930125 1.414643557616 4.243930125 0 0 0
81 1 2.82928675 2.82928660596 0 0 0 0
82 1 4.243930125000002 4.229190219979437 1.4146433750000003 0 0 0
83 1 2.82928675 2.82928660596 2.82928675 0 0 0
84 1 4.243930124999997 4.229190219979431 4.243930124999999 0 0 0
145 1 5.6585735 0 0 0 0 0
146 1 7.073216875 1.414643557616 1.414643375 0 0 0
147 1 5.6585735 0 2.82928675 0 0 0
148 1 7.073216875 1.414643557616 4.243930125 0 0 0
153 1 5.6585735 2.82928660596 0 0 0 0
154 1 7.073216875 4.229190219979435 1.4146433750000018 0 0 0
155 1 5.6585735 2.82928660596 2.82928675 0 0 0
156 1 7.073216874999998 4.229190219979425 4.243930125 0 0 0
217 1 8.48786025 0 0 0 0 0
218 1 9.902503625 1.414643557616 1.414643375 0 0 0
219 1 8.48786025 0 2.82928675 0 0 0
220 1 9.902503625 1.414643557616 4.243930125 0 0 0
225 1 8.48786025 2.82928660596 0 0 0 0
226 1 9.902503625000003 4.2291902199794364 1.414643375000001 0 0 0
227 1 8.48786025 2.82928660596 2.82928675 0 0 0
228 1 9.902503625000001 4.229190219979431 4.243930124999997 0 0 0
17 1 11.317146999999995 5.636397805668515 9.034566762573692e-15 -1 0 0
18 1 1.4146433750000065 7.045320712813561 1.4146433750000007 0 0 0
19 1 11.317146999999997 5.636397805668522 2.829286749999996 -1 0 0
20 1 1.4146433750000027 7.04532071281358 4.243930124999997 0 0 0
25 1 7.009205500216546e-15 8.452976698788165 11.31714699999999 0 0 -1
27 1 11.317146999999997 8.452976698788156 2.8292867500000116 -1 0 0
89 1 2.8292867500000027 5.636397805668522 6.521038364357752e-15 0 0 0
90 1 4.243930124999993 7.045320712813554 1.4146433750000007 0 0 0
91 1 2.82928675 5.636397805668526 2.829286749999993 0 0 0
92 1 4.243930124999996 7.045320712813574 4.243930124999995 0 0 0
97 1 2.8292867499999974 8.452976698788158 11.317146999999988 0 0 -1
99 1 2.829286749999999 8.45297669878815 2.8292867500000103 0 0 0
161 1 5.658573500000003 5.636397805668519 7.949493436586709e-15 0 0 0
162 1 7.0732168750000035 7.04532071281356 1.4146433749999987 0 0 0
163 1 5.6585734999999975 5.63639780566852 2.8292867499999907 0 0 0
164 1 7.073216874999998 7.045320712813583 4.243930124999998 0 0 0
169 1 5.658573500000004 8.452976698788161 11.31714699999999 0 0 -1
171 1 5.658573500000004 8.452976698788152 2.8292867500000174 0 0 0
233 1 8.487860249999997 5.6363978056685164 2.8965181758220707e-15 0 0 0
234 1 9.902503625000001 7.045320712813555 1.4146433750000007 0 0 0
235 1 8.487860250000004 5.636397805668521 2.8292867499999907 0 0 0
236 1 9.902503625000003 7.045320712813571 4.243930124999994 0 0 0
241 1 8.487860249999992 8.45297669878816 11.317146999999988 0 0 -1
243 1 8.487860249999997 8.452976698788154 2.8292867500000125 0 0 0
26 1 1.4146433750000018 9.85234512846394 1.4146433749999956 0 0 0
28 1 1.4146433750000003 9.852345128463924 4.243930125000007 0 0 0
33 1 11.317146999999999 11.269745750887246 6.663662455730806e-16 -1 0 0
34 1 1.4146433749999985 12.655730669190557 1.4146433750000023 0 0 0
35 1 11.317146999999999 11.269745750887251 2.8292867499999974 -1 0 0
36 1 1.4146433750000011 12.655730669190561 4.243930125000001 0 0 0
98 1 4.243930125000001 9.852345128463941 1.4146433750000007 0 0 0
100 1 4.243930125000001 9.85234512846392 4.243930125000001 0 0 0
105 1 2.829286750000004 11.26974575088725 1.4173843594318255e-15 0 0 0
106 1 4.243930124999999 12.65573066919055 1.4146433749999985 0 0 0
107 1 2.829286750000002 11.26974575088725 2.8292867499999956 0 0 0
108 1 4.243930125 12.655730669190552 4.243930125000004 0 0 0
170 1 7.073216875 9.852345128463936 1.4146433749999938 0 0 0
172 1 7.0732168749999955 9.852345128463918 4.243930125 0 0 0
177 1 5.658573499999998 11.269745750887237 2.903607315412576e-16 0 0 0
178 1 7.073216874999996 12.655730669190556 1.4146433750000025 0 0 0
179 1 5.6585735 11.269745750887246 2.8292867500000014 0 0 0
180 1 7.073216875000001 12.655730669190556 4.2439301249999986 0 0 0
242 1 9.902503624999998 9.852345128463941 1.4146433749999963 0 0 0
244 1 9.902503625000003 9.852345128463924 4.243930124999999 0 0 0
249 1 8.487860249999997 11.269745750887246 4.775061705222907e-15 0 0 0
250 1 9.902503625000001 12.655730669190556 1.4146433750000011 0 0 0
251 1 8.48786025 11.269745750887251 2.829286749999998 0 0 0
252 1 9.902503625 12.655730669190557 4.243930124999998 0 0 0
41 1 11.317146999999997 17.217973717280234 11.317146999999999 -1 0 -1
42 1 1.414643374999996 18.605429846504286 1.4146433750000018 0 0 0
43 1 11.317146999999997 17.217973717280234 2.8292867500000036 -1 0 0
44 1 1.4146433750000003 18.605429846504293 4.243930125 0 0 0
113 1 2.8292867500000063 17.217973717280238 11.317146999999999 0 0 -1
114 1 4.243930125000001 18.605429846504286 1.4146433749999994 0 0 0
115 1 2.8292867499999983 17.217973717280238 2.8292867499999974 0 0 0
116 1 4.243930125 18.605429846504293 4.243930124999993 0 0 0
185 1 5.6585735 17.217973717280245 11.317146999999991 0 0 -1
186 1 7.073216874999998 18.60542984650429 1.4146433749999943 0 0 0
187 1 5.658573499999995 17.217973717280234 2.8292867499999974 0 0 0
188 1 7.073216875 18.605429846504293 4.243930124999999 0 0 0
257 1 8.487860249999997 17.217973717280234 1.0706414309497788e-15 0 0 0
258 1 9.902503624999996 18.60542984650429 1.4146433749999987 0 0 0
259 1 8.487860249999995 17.217973717280238 2.8292867499999965 0 0 0
260 1 9.902503625000001 18.605429846504286 4.243930125 0 0 0
49 1 1.6061185877483855e-15 20.02293467600698 0 0 0 0
50 1 1.4146433749999996 21.422241555111253 1.4146433749999971 0 0 0
51 1 1.3267386676935973e-16 20.022934676006972 2.829286750000003 0 0 0
52 1 1.414643375000001 21.42224155511125 4.243930124999999 0 0 0
57 1 9.942205805956039e-16 22.827604275188232 5.420982967623825e-15 0 0 0
59 1 11.317146999999997 22.827604275188243 2.829286749999997 -1 0 0
121 1 2.8292867500000023 20.02293467600698 11.317146999999997 0 0 -1
122 1 4.243930124999997 21.422241555111256 1.4146433750000005 0 0 0
123 1 2.829286749999998 20.022934676006976 2.8292867500000005 0 0 0
124 1 4.243930124999997 21.422241555111246 4.243930125 0 0 0
129 1 2.8292867500000023 22.827604275188236 0 0 0 0
131 1 2.8292867500000005 22.82760427518824 2.8292867499999996 0 0 0
193 1 5.6585735000000055 20.022934676006976 11.317146999999999 0 0 -1
194 1 7.073216875000005 21.422241555111256 1.4146433749999923 0 0 0
195 1 5.658573499999999 20.022934676006972 2.829286750000003 0 0 0
196 1 7.073216875 21.422241555111246 4.243930125000003 0 0 0
201 1 5.6585735000000055 22.827604275188243 2.741100558714321e-15 0 0 0
203 1 5.6585735 22.827604275188243 2.829286749999997 0 0 0
265 1 8.487860249999997 20.022934676006976 11.317146999999999 0 0 -1
266 1 9.902503624999998 21.422241555111256 1.4146433749999974 0 0 0
267 1 8.487860249999999 20.02293467600697 2.8292867500000027 0 0 0
268 1 9.902503625000003 21.422241555111246 4.243930125000004 0 0 0
273 1 8.487860249999999 22.827604275188232 2.3713907252731714e-15 0 0 0
275 1 8.487860250000002 22.827604275188243 2.829286749999995 0 0 0
58 1 1.4146433749999987 24.22765927595043 1.414643375000005 0 0 0
60 1 1.414643375000001 24.227659275950433 4.243930124999997 0 0 0
65 1 0 25.63429539404 0 0 0 0
66 1 1.414643375 27.048937423841 1.414643375 0 0 0
67 1 0 25.63429539404 2.82928675 0 0 0
68 1 1.414643375 27.048937423841 4.243930125 0 0 0
130 1 4.2439301249999986 24.22765927595043 1.4146433749999994 0 0 0
132 1 4.243930124999998 24.227659275950433 4.243930124999998 0 0 0
137 1 2.82928675 25.63429539404 0 0 0 0
138 1 4.243930125 27.048937423841 1.414643375 0 0 0
139 1 2.82928675 25.63429539404 2.82928675 0 0 0
140 1 4.243930125 27.048937423841 4.243930125 0 0 0
202 1 7.073216875000004 24.227659275950423 1.4146433749999978 0 0 0
204 1 7.0732168750000035 24.22765927595043 4.243930124999999 0 0 0
209 1 5.6585735 25.63429539404 0 0 0 0
210 1 7.073216875 27.048937423841 1.414643375 0 0 0
211 1 5.6585735 25.63429539404 2.82928675 0 0 0
212 1 7.073216875 27.048937423841 4.243930125 0 0 0
274 1 9.902503625 24.22765927595043 1.4146433749999991 0 0 0
276 1 9.902503624999998 24.22765927595043 4.243930125 0 0 0
281 1 8.48786025 25.63429539404 0 0 0 0
282 1 9.902503625 27.048937423841 1.414643375 0 0 0
283 1 8.48786025 25.63429539404 2.82928675 0 0 0
284 1 9.902503625 27.048937423841 4.243930125 0 0 0
5 1 0 0 5.6585735 0 0 0
6 1 1.414643375 1.414643557616 7.073216875 0 0 0
7 1 0 0 8.48786025 0 0 0
8 1 1.414643375 1.414643557616 9.902503625 0 0 0
13 1 0 2.82928660596 5.6585735 0 0 0
14 1 1.4146433750000003 4.229190219979432 7.073216875000001 0 0 0
15 1 0 2.82928660596 8.48786025 0 0 0
16 1 1.4146433749999963 4.229190219979422 9.902503625000008 0 0 0
77 1 2.82928675 0 5.6585735 0 0 0
78 1 4.243930125 1.414643557616 7.073216875 0 0 0
79 1 2.82928675 0 8.48786025 0 0 0
80 1 4.243930125 1.414643557616 9.902503625 0 0 0
85 1 2.82928675 2.82928660596 5.6585735 0 0 0
86 1 4.243930125000005 4.229190219979441 7.073216875000001 0 0 0
87 1 2.82928675 2.82928660596 8.48786025 0 0 0
88 1 4.243930125000005 4.22919021997943 9.902503625000001 0 0 0
149 1 5.6585735 0 5.6585735 0 0 0
150 1 7.073216875 1.414643557616 7.073216875 0 0 0
151 1 5.6585735 0 8.48786025 0 0 0
152 1 7.073216875 1.414643557616 9.902503625 0 0 0
157 1 5.6585735 2.82928660596 5.6585735 0 0 0
158 1 7.073216874999999 4.229190219979435 7.073216874999996 0 0 0
159 1 5.6585735 2.82928660596 8.48786025 0 0 0
160 1 7.073216875000003 4.2291902199794285 9.902503625000007 0 0 0
221 1 8.48786025 0 5.6585735 0 0 0
222 1 9.902503625 1.414643557616 7.073216875 0 0 0
223 1 8.48786025 0 8.48786025 0 0 0
224 1 9.902503625 1.414643557616 9.902503625 0 0 0
229 1 8.48786025 2.82928660596 5.6585735 0 0 0
230 1 9.902503624999994 4.229190219979437 7.073216874999997 0 0 0
231 1 8.48786025 2.82928660596 8.48786025 0 0 0
232 1 9.902503624999998 4.22919021997943 9.902503625000003 0 0 0
21 1 11.317146999999995 5.636397805668512 5.658573500000003 -1 0 0
22 1 1.414643375000001 7.0453207128135675 7.073216875000006 0 0 0
23 1 11.317146999999993 5.636397805668521 8.487860249999992 -1 0 0
24 1 1.414643375000001 7.045320712813584 9.902503624999996 0 0 0
29 1 5.831241921745091e-15 8.452976698788163 5.658573499999986 0 0 0
31 1 3.69356594848223e-15 8.452976698788152 8.487860250000013 0 0 0
93 1 2.8292867500000036 5.6363978056685164 5.658573500000005 0 0 0
94 1 4.243930124999997 7.045320712813554 7.073216875000007 0 0 0
95 1 2.829286750000007 5.6363978056685236 8.48786024999999 0 0 0
96 1 4.2439301249999914 7.045320712813571 9.902503624999996 0 0 0
101 1 2.8292867499999925 8.452976698788158 5.6585734999999895 0 0 0
103 1 2.8292867499999934 8.452976698788147 8.487860250000013 0 0 0
165 1 5.658573500000003 5.636397805668512 5.658573500000011 0 0 0
166 1 7.073216875 7.0453207128135595 7.073216875000002 0 0 0
167 1 5.658573499999997 5.636397805668522 8.487860249999992 0 0 0
168 1 7.073216875 7.0453207128135755 9.902503625000001 0 0 0
173 1 5.658573500000008 8.45297669878816 5.658573499999988 0 0 0
175 1 5.658573500000005 8.452976698788154 8.48786025000001 0 0 0
237 1 8.48786025 5.636397805668512 5.658573500000012 0 0 0
238 1 9.902503625 7.045320712813554 7.073216875000005 0 0 0
239 1 8.487860250000002 5.636397805668518 8.48786024999999 0 0 0
240 1 9.902503624999998 7.045320712813571 9.902503624999996 0 0 0
245 1 8.487860249999995 8.452976698788161 5.65857349999999 0 0 0
247 1 8.487860249999995 8.45297669878815 8.487860250000011 0 0 0
30 1 1.4146433750000031 9.852345128463936 7.073216874999995 0 0 0
32 1 1.414643374999997 9.852345128463924 9.902503625000003 0 0 0
37 1 2.0854067904423627e-15 11.269745750887244 5.658573500000001 0 0 0
38 1 1.4146433750000018 12.655730669190554 7.073216874999999 0 0 0
39 1 0 11.269745750887251 8.487860249999999 0 0 0
40 1 1.4146433749999996 12.655730669190557 9.902503624999994 0 0 0
102 1 4.243930125000004 9.852345128463943 7.073216874999996 0 0 0
104 1 4.243930125000002 9.852345128463929 9.902503625000001 0 0 0
109 1 2.8292867500000014 11.26974575088725 5.658573500000004 0 0 0
110 1 4.243930125000001 12.65573066919055 7.073216874999993 0 0 0
111 1 2.8292867500000067 11.269745750887258 8.487860249999999 0 0 0
112 1 4.243930125000006 12.655730669190548 9.902503625000001 0 0 0
174 1 7.0732168749999955 9.852345128463934 7.073216874999995 0 0 0
176 1 7.073216874999999 9.852345128463925 9.90250362500001 0 0 0
181 1 5.658573499999998 11.26974575088724 5.658573500000004 0 0 0
182 1 7.073216875 12.65573066919056 7.073216874999999 0 0 0
183 1 5.658573499999996 11.269745750887244 8.487860249999992 0 0 0
184 1 7.073216874999995 12.655730669190556 9.902503625 0 0 0
246 1 9.902503625 9.85234512846394 7.073216874999996 0 0 0
248 1 9.902503625000005 9.852345128463925 9.902503625000007 0 0 0
253 1 8.48786025 11.269745750887248 5.658573500000002 0 0 0
254 1 9.902503625 12.65573066919056 7.073216874999997 0 0 0
255 1 8.487860249999999 11.269745750887244 8.487860249999997 0 0 0
256 1 9.902503625000001 12.65573066919056 9.902503625000001 0 0 0
45 1 9.944338010278512e-15 17.217973717280238 5.658573499999999 0 0 0
46 1 1.414643375000002 18.605429846504293 7.0732168750000035 0 0 0
47 1 11.317146999999999 17.217973717280234 8.487860250000006 -1 0 0
48 1 1.4146433750000005 18.605429846504297 9.902503625 0 0 0
117 1 2.82928675 17.217973717280234 5.658573500000004 0 0 0
118 1 4.243930125000004 18.605429846504293 7.073216875000002 0 0 0
119 1 2.8292867500000045 17.217973717280234 8.487860250000002 0 0 0
120 1 4.243930125000003 18.605429846504297 9.902503624999998 0 0 0
189 1 5.6585735000000055 17.217973717280238 5.658573500000003 0 0 0
190 1 7.073216875000002 18.60542984650429 7.073216875000005 0 0 0
191 1 5.6585735 17.217973717280234 8.487860250000004 0 0 0
192 1 7.073216875000002 18.6054298465043 9.902503625000001 0 0 0
261 1 8.487860249999997 17.217973717280234 5.658573500000005 0 0 0
262 1 9.902503625000005 18.60542984650429 7.073216875000004 0 0 0
263 1 8.487860249999997 17.217973717280238 8.487860249999999 0 0 0
264 1 9.902503625 18.60542984650429 9.902503624999998 0 0 0
53 1 11.31714699999999 20.02293467600698 5.658573500000001 -1 0 0
54 1 1.4146433750000003 21.422241555111256 7.073216874999994 0 0 0
55 1 11.317146999999995 20.022934676006972 8.487860250000004 -1 0 0
56 1 1.4146433750000005 21.422241555111246 9.902503625000007 0 0 0
61 1 7.867158341697052e-16 22.827604275188232 5.658573500000003 0 0 0
63 1 11.317146999999999 22.82760427518824 8.487860249999995 -1 0 0
125 1 2.82928675 20.02293467600698 5.658573499999999 0 0 0
126 1 4.243930124999995 21.422241555111256 7.073216874999997 0 0 0
127 1 2.8292867500000027 20.022934676006976 8.487860250000002 0 0 0
128 1 4.243930124999998 21.42224155511125 9.902503625000005 0 0 0
133 1 2.8292867499999983 22.82760427518824 5.658573500000004 0 0 0
135 1 2.82928675 22.827604275188243 8.487860249999995 0 0 0
197 1 5.658573500000005 20.02293467600698 5.658573499999995 0 0 0
198 1 7.073216875000001 21.42224155511126 7.073216874999996 0 0 0
199 1 5.658573500000001 20.02293467600697 8.487860250000002 0 0 0
200 1 7.073216875000001 21.422241555111246 9.902503625000007 0 0 0
205 1 5.658573500000005 22.827604275188246 5.658573500000002 0 0 0
207 1 5.6585735 22.827604275188243 8.487860249999995 0 0 0
269 1 8.487860250000002 20.022934676006976 5.658573499999993 0 0 0
270 1 9.902503625000005 21.422241555111253 7.0732168749999955 0 0 0
271 1 8.48786025 20.022934676006972 8.48786025 0 0 0
272 1 9.902503625000001 21.422241555111246 9.902503625000007 0 0 0
277 1 8.487860249999999 22.827604275188246 5.658573499999996 0 0 0
279 1 8.487860250000002 22.827604275188246 8.48786025 0 0 0
62 1 1.4146433750000025 24.22765927595043 7.073216875 0 0 0
64 1 1.4146433750000003 24.227659275950433 9.902503624999996 0 0 0
69 1 0 25.63429539404 5.6585735 0 0 0
70 1 1.414643375 27.048937423841 7.073216875 0 0 0
71 1 0 25.63429539404 8.48786025 0 0 0
72 1 1.414643375 27.048937423841 9.902503625 0 0 0
134 1 4.243930124999998 24.227659275950426 7.073216875 0 0 0
136 1 4.243930125 24.22765927595043 9.902503624999996 0 0 0
141 1 2.82928675 25.63429539404 5.6585735 0 0 0
142 1 4.243930125 27.048937423841 7.073216875 0 0 0
143 1 2.82928675 25.63429539404 8.48786025 0 0 0
144 1 4.243930125 27.048937423841 9.902503625 0 0 0
206 1 7.073216874999997 24.227659275950426 7.073216875 0 0 0
208 1 7.073216874999998 24.227659275950433 9.902503624999996 0 0 0
213 1 5.6585735 25.63429539404 5.6585735 0 0 0
214 1 7.073216875 27.048937423841 7.073216875 0 0 0
215 1 5.6585735 25.63429539404 8.48786025 0 0 0
216 1 7.073216875 27.048937423841 9.902503625 0 0 0
278 1 9.902503625000001 24.227659275950426 7.073216874999999 0 0 0
280 1 9.902503625000001 24.22765927595043 9.902503625 0 0 0
285 1 8.48786025 25.63429539404 5.6585735 0 0 0
286 1 9.902503625 27.048937423841 7.073216875 0 0 0
287 1 8.48786025 25.63429539404 8.48786025 0 0 0
288 1 9.902503625 27.048937423841 9.902503625 0 0 0

Velocities

1 0 0 0
2 0 0 0
3 0 0 0
4 0 0 0
9 0 0 0
10 0 0 0
11 0 0 0
12 0 0 0
73 0 0 0
74 0 0 0
75 0 0 0
76 0 0 0
81 0 0 0
82 0 0 0
83 0 0 0
84 0 0 0
145 0 0 0
146 0 0 0
147 0 0 0
148 0 0 0
153 0 0 0
154 0 0 0
155 0 0 0
156 0 0 0
217 0 0 0
218 0 0 0
219 0 0 0
220 0 0 0
225 0 0 0
226 0 0 0
227 0 0 0
228 0 0 0
17 0 0 0
18 0 0 0
19 0 0 0
20 0 0 0
25 0 0 0
27 0 0 0
89 0 0 0
90 0 0 0
91 0 0 0
92 0 0 0
97 0 0 0
99 0 0 0
161 0 0 0
162 0 0 0
163 0 0 0
164 0 0 0
169 0 0 0
171 0 0 0
233 0 0 0
234 0 0 0
235 0 0 0
236 0 0 0
241 0 0 0
243 0 0 0
26 0 0 0
28 0 0 0
33 0 0 0
34 0 0 0
35 0 0 0
36 0 0 0
98 0 0 0
100 0 0 0
105 0 0 0
106 0 0 0
107 0 0 0
108 0 0 0
170 0 0 0
172 0 0 0
177 0 0 0
178 0 0 0
179 0 0 0
180 0 0 0
242 0 0 0
244 0 0 0
249 0 0 0
250 0 0 0
251 0 0 0
252 0 0 0
41 0 0 0
42 0 0 0
43 0 0 0
44 0 0 0
113 0 0 0
114 0 0 0
115 0 0 0
116 0 0 0
185 0 0 0
186 0 0 0
187 0 0 0
188 0 0 0
257 0 0 0
258 0 0 0
259 0 0 0
260 0 0 0
49 0 0 0
50 0 0 0
51 0 0 0
52 0 0 0
57 0 0 0
59 0 0 0
121 0 0 0
122 0 0 0
123 0 0 0
124 0 0 0
129 0 0 0
131 0 0 0
193 0 0 0
194 0 0 0
195 0 0 0
196 0 0 0
201 0 0 0
203 0 0 0
265 0 0 0
266 0 0 0
267 0 0 0
268 0 0 0
273 0 0 0
275 0 0 0
58 0 0 0
60 0 0 0
65 0 0 0
66 0 0 0
67 0 0 0
68 0 0 0
130 0 0 0
132 0 0 0
137 0 0 0
138 0 0 0
139 0 0 0
140 0 0 0
202 0 0 0
204 0 0 0
209 0 0 0
210 0 0 0
211 0 0 0
212 0 0 0
274 0 0 0
276 0 0 0
281 0 0 0
282 0 0 0
283 0 0 0
284 0 0 0
5 0 0 0
6 0 0 0
7 0 0 0
8 0 0 0
13 0 0 0
14 0 0 0
15 0 0 0
16 0 0 0
77 0 0 0
78 0 0 0
79 0 0 0
80 0 0 0
85 0 0 0
86 0 0 0
87 0 0 0
88 0 0 0
149 0 0 0
150 0 0 0
151 0 0 0
152 0 0 0
157 0 0 0
158 0 0 0
159 0 0 0
160 0 0 0
221 0 0 0
222 0 0 0
223 0 0 0
224 0 0 0
229 0 0 0
230 0 0 0
231 0 0 0
232 0 0 0
21 0 0 0
22 0 0 0
23 0 0 0
24 0 0 0
29 0 0 0
31 0 0 0
93 0 0 0
94 0 0 0
95 0 0 0
96 0 0 0
101 0 0 0
103 0 0 0
165 0 0 0
166 0 0 0
167 0 0 0
168 0 0 0
173 0 0 0
175 0 0 0
237 0 0 0
238 0 0 0
239 0 0 0
240 0 0 0
245 0 0 0
247 0 0 0
30 0 0 0
32 0 0 0
37 0 0 0
38 0 0 0
39 0 0 0
40 0 0 0
102 0 0 0
104 0 0 0
109 0 0 0
110 0 0 0
111 0 0 0
112 0 0 0
174 0 0 0
176 0 0 0
181 0 0 0
182 0 0 0
183 0 0 0
184 0 0 0
246 0 0 0
248 0 0 0
253 0 0 0
254 0 0 0
255 0 0 0
256 0 0 0
45 0 0 0
46 0 0 0
47 0 0 0
48 0 0 0
117 0 0 0
118 0 0 0
119 0 0 0
120 0 0 0
189 0 0 0
190 0 0 0
191 0 0 0
192 0 0 0
261 0 0 0
262 0 0 0
263 0 0 0
264 0 0 0
53 0 0 0
54 0 0 0
55 0 0 0
56 0 0 0
61 0 0 0
63 0 0 0
125 0 0 0
126 0 0 0
127 0 0 0
128 0 0 0
133 0 0 0
135 0 0 0
197 0 0 0
198 0 0 0
199 0 0 0
200 0 0 0
205 0 0 0
207 0 0 0
269 0 0 0
270 0 0 0
271 0 0 0
272 0 0 0
277 0 0 0
279 0 0 0
62 0 0 0
64 0 0 0
69 0 0 0
70 0 0 0
71 0 0 0
72 0 0 0
134 0 0 0
136 0 0 0
141 0 0 0
142 0 0 0
143 0 0 0
144 0 0 0
206 0 0 0
208 0 0 0
213 0 0 0
214 0 0 0
215 0 0 0
216 0 0 0
278 0 0 0
280 0 0 0
285 0 0 0
286 0 0 0
287 0 0 0
288 0 0 0
