 # File generated with Atomsk by user on 2025-06-01 22:43:56
  
         308  atoms
           2  atom types
 
      0.000000000000      11.418457290000  xlo xhi
      0.000000000000      30.391530170000  ylo yhi
      0.000000000000      11.418457290000  zlo zhi
 
Masses
 
            1   1.00800000              # H
            2   4.00260200              # He
 
Atoms # atomic
 
         1    1       11.379460974663      30.272550381545      11.374064269194
         2    1        1.382378500613       1.281494038710       1.371418266014
         3    1       11.379096269137      30.277444104212       2.811297491294
         4    1        1.381271366994       1.267883950603       4.227868448077
         5    1       11.365948258122      30.281009831684       5.670147376341
         6    1        1.373450180489       1.277018831070       7.095406294722
         7    1       11.377179338528      30.274746236629       8.525092377364
         8    1        1.390729846090       1.281520500986       9.946833497423
         9    1       11.371293009610       2.679498652911      11.363751803677
        10    1        1.377892531297       4.062659985556       1.383887678113
        11    1       11.366024076678       2.653729020489       2.805222757831
        12    1        1.372105428774       4.063218262506       4.241185452260
        13    1       11.356124959315       2.670607585065       5.658610966387
        14    1        1.363448411195       4.079503609650       7.086013471756
        15    1       11.372309709047       2.685197548133       8.496997149017
        16    1        1.370170685370       4.084223657573       9.938806550318
        17    1       11.358591802828       5.474838873866      11.361359180137
        18    1        1.382198659910       6.870303366479       1.367908003874
        19    1       11.389045170974       5.462273660291       2.801261466628
        20    1        1.354488804497       6.865251383986       4.228544877487
        21    1       11.353875865783       5.474498461091       5.675807048881
        22    1        1.355554717485       6.902835780387       7.091890780092
        23    1       11.356722715554       5.493654836732       8.517753963233
        24    1        1.355828646276       6.907437647271       9.921730932548
        25    1       11.354542132766       8.322053120303      11.357371740667
        26    1        1.352538075254       9.718273714649       1.356574499906
        27    1       11.376610470985       8.292069049272       2.798215022223
        28    1        1.382924074502       9.728051654116       4.214461466450
        29    1       11.326574334402       8.241138159863       5.657178977658
        30    1        1.373245561734       9.778351559544       7.132771026697
        31    1       11.350934699554       8.336889722061       8.514029034096
        32    1        1.340041715596       9.770641531340       9.937809033889
        33    1       11.361751061591      11.199801750347      11.365438766557
        34    1        1.371548778981      12.701083489763       1.378782485858
        35    1       11.374784431295      11.140544492926       2.820177282975
        36    1        1.343461429370      12.746890974225       4.229354560293
        37    1       11.335542276573      11.345616855895       5.655778275503
        38    1        1.369963897109      12.735221881222       7.090288998903
        39    1       11.357408508099      11.243643575837       8.495051672264
        40    1        1.387045338292      12.611994255169       9.957591396959
        41    1       11.386465627288      18.997215275583       0.021739372465
        42    1        1.378524314539      20.465135535411       1.384740865241
        43    1       11.373457149820      19.051433396277       2.838867584790
        44    1        1.371087359122      20.429738515889       4.234607164831
        45    1       11.370770272635      18.910636617317       5.649066392123
        46    1        1.395621855747      20.397994061211       7.035317005787
        47    1       11.377185390310      18.803810977955       8.493401819371
        48    1        1.423216613110      20.489309209979       9.995851450170
        49    1       11.369684834085      21.868035413770      11.391208169339
        50    1        1.377335424766      23.285199743511       1.372397170357
        51    1       11.365186190282      21.864316564778       2.816859079286
        52    1        1.366888564007      23.281743718872       4.233063846144
        53    1       11.374214421908      21.855670851046       5.658458758351
        54    1        1.367528454353      23.275970832043       7.080420026267
        55    1       11.357727996534      21.907458039155       8.508873600629
        56    1        1.377479982435      23.286744832135       9.946396398878
        57    1       11.355972066172      24.676235530152      11.369112883560
        58    1        1.371521488868      26.069350018500       1.374733272534
        59    1       11.370830447905      24.678797746456       2.789076830854
        60    1        1.376467622012      26.087168636165       4.242853117948
        61    1       11.365107402927      24.677410403827       5.656959971648
        62    1        1.377386693639      26.087960192210       7.080776167950
        63    1       11.359569907879      24.674595896697       8.511855074012
        64    1        1.361351754067      26.075906240085       9.937191409534
        65    1       11.370464486349      27.474248954822      11.378724598353
        66    1        1.384430283203      28.870573856780       1.371928899424
        67    1       11.365691342833      27.483000260744       2.800697052284
        68    1        1.372674981423      28.875200644448       4.239395951634
        69    1       11.358591917013      27.487695644798       5.657642909578
        70    1        1.364829587788      28.878083747964       7.087664238126
        71    1       11.349600452820      27.463778114786       8.524693644836
        72    1        1.379720740494      28.866885837624       9.940554373575
        73    1        2.815820113857      30.271391693534      11.377806211833
        74    1        4.245178144221       1.289940899999       1.380283213700
        75    1        2.807867843462      30.279889680969       2.808594742453
        76    1        4.237085312617       1.271696316765       4.243322759096
        77    1        2.797941207617      30.276810551078       5.662363642376
        78    1        4.236847580336       1.279942270288       7.093683363702
        79    1        2.814099352344      30.268177683110       8.519257431504
        80    1        4.227418789229       1.288019173543       9.948617060452
        81    1        2.803183307174       2.682119188988      11.369824710187
        82    1        4.241516016599       4.071919726859       1.384575640164
        83    1        2.816514926983       2.664308021867       2.808780749123
        84    1        4.239934788634       4.075796578762       4.239674219438
        85    1        2.797638161761       2.671848742887       5.663729974975
        86    1        4.225372601682       4.079275725778       7.073466414147
        87    1        2.799802416155       2.678239767932       8.499226488619
        88    1        4.223754149546       4.069992605181       9.930888649479
        89    1        2.794862563163       5.471642076767      11.360273399033
        90    1        4.230888858399       6.856293004331       1.370538245510
        91    1        2.810565225628       5.463275886883       2.807349788055
        92    1        4.220252222880       6.865927071230       4.237721549057
        93    1        2.795008491047       5.467977436904       5.664021830743
        94    1        4.202952460794       6.887647975412       7.089432957160
        95    1        2.789875437757       5.486706048567       8.507648742716
        96    1        4.214419103973       6.880156325214       9.945835524256
        97    1        2.793750862161       8.289118120117      11.359423865811
        98    1        4.227911609845       9.689870186554       1.361924389700
        99    1        2.793352358001       8.259791752259       2.793071121398
       100    1        4.212495322289       9.660003782731       4.195534802569
       101    1        2.784853828610       8.289672286423       5.656016578706
       102    1        4.174250798180       9.681821543982       7.061343780596
       103    1        2.778285018500       8.322126084249       8.520579803043
       104    1        4.220635654676       9.733128300478       9.941679091618
       105    1        2.839755826582      11.111360456144      11.377431229695
       106    1        4.235415020684      12.609462868701       1.352206711623
       107    1        2.776216793331      11.086132401178       2.775816804772
       108    1        4.221595147642      12.727569658961       4.183031249283
       109    1        2.733898962953      11.256917361814       5.673611165360
       110    1        4.215648643454      17.549943298552       7.082556077073
       111    1        2.771219619682      11.242744115365       8.546724073777
       112    1        4.231171008479      12.743111750137       9.953978939626
       113    1        2.828749233047      19.025532480136      11.380403682497
       114    1        4.268297437250      20.530221944113       1.374916424589
       115    1        2.759563201743      19.046279418409       2.800774012686
       116    1        4.219380537850      20.502533925134       4.194997792522
       117    1        2.740182654184      18.939727650759       5.662201957020
       118    1        4.208979350920      20.403704260706       7.085873824023
       119    1        2.801341167460      18.917864929330       8.529719592996
       120    1        4.221686038562      20.417800689480       9.940975600465
       121    1        2.829421894366      21.896167382391      11.375072290604
       122    1        4.238262669748      23.309209763031       1.378108225955
       123    1        2.790111114715      21.887740046665       2.797068494926
       124    1        4.226858142976      23.280611750053       4.233151197342
       125    1        2.792259611639      21.858800079420       5.649140383726
       126    1        4.224426125758      23.261138340930       7.079822726767
       127    1        2.815233090968      21.865643789227       8.510004941378
       128    1        4.233296782673      23.280331455459       9.937048564633
       129    1        2.812957734984      24.691711337181      11.366125015840
       130    1        4.229065901693      26.085486868600       1.375561110688
       131    1        2.801145226733      24.690138758619       2.813890052021
       132    1        4.248760000088      26.099441993958       4.237939527407
       133    1        2.800105576196      24.679744479343       5.652700430340
       134    1        4.246822972994      26.086431289249       7.077594643196
       135    1        2.800818773039      24.692142441057       8.495922672186
       136    1        4.230195986411      26.083929704957       9.928620144569
       137    1        2.798799875605      27.470510837182      11.363397260578
       138    1        4.233049687257      28.869199873747       1.368488175689
       139    1        2.804607417168      27.481229857400       2.813476475498
       140    1        4.237885403919      28.877399068685       4.232376797569
       141    1        2.808283475308      27.488349494241       5.660019318909
       142    1        4.241082115222      28.872971133460       7.084282662000
       143    1        2.806024105164      27.475867778138       8.512578090728
       144    1        4.232681213640      28.880891575296       9.944046366184
       145    1        5.658741479354      30.278581211337      11.357856339994
       146    1        7.077573519050       1.287495066327       1.371491458325
       147    1        5.655070902074      30.275329434363       2.790701106403
       148    1        7.074905368135       1.263828542565       4.231963677784
       149    1        5.660360959151      30.258113539997       5.659240351753
       150    1        7.081144527382       1.278852435578       7.091896603505
       151    1        5.667980952439      30.278431686632       8.513837774936
       152    1        7.089334644243       1.298967619125       9.946155469430
       153    1        5.658615647955       2.690757452177      11.360718376314
       154    1        7.089926120331       4.078319230110       1.375317783363
       155    1        5.655862772087       2.683135545922       2.813877834272
       156    1        7.093356224900       4.067417029282       4.236404544193
       157    1        5.649345345035       2.662067206606       5.656574484529
       158    1        7.066927520395       4.071077301585       7.081484226487
       159    1        5.662069388731       2.691364286120       8.504741831859
       160    1        7.094810593805       4.089956465615       9.937713347217
       161    1        5.665088086285       5.473144260536      11.363031299022
       162    1        7.095879247223       6.870423345925       1.366568390464
       163    1        5.675078779675       5.469845981893       2.818501053444
       164    1        7.103277151517       6.872096121454       4.224417561915
       165    1        5.662417309125       5.468329924698       5.654953748702
       166    1        7.095401498970       6.884266199296       7.098149350717
       167    1        5.647036761340       5.490377111313       8.507957041063
       168    1        7.105823467493       6.897520716626       9.938621571310
       169    1        5.666846414523       8.296653189001      11.345551582049
       170    1        7.112202959580       9.635033670729       1.341725595492
       171    1        5.652851839084       8.258858378968       2.792181851945
       172    1        7.121512541994       9.652699937619       4.199813755254
       173    1        5.638095081620       8.228230478191       5.655696633533
       174    1        7.176044696135       9.793203833136       7.100948928075
       175    1        5.663138384703       8.249455792756       8.547134909870
       176    1        7.115520363977       9.771769903345       9.927898954807
       177    1        5.648614449583      11.207237393009      11.338401686648
       178    1        7.128911816502      17.580636969646       1.357780060627
       179    1        5.661745447098      11.106722878033       2.761420984744
       180    1        7.105697864462      17.562066874723       4.231096103399
       181    1        5.685050518427      11.360693930376       5.684682958287
       182    1        7.073022807081      12.733785724686       7.086347918370
       183    1        5.679620356878      11.320990753482       8.575596442327
       184    1        7.081419027096      12.660953833468       9.964081419714
       185    1        5.650802682739      18.935210309009      11.364963416180
       186    1        7.078492362308      20.439038335980       1.372435193820
       187    1        5.703347682757      19.065042970554       2.783346363878
       188    1        7.082821784574      20.420678140859       4.233749067766
       189    1        5.699018374676      18.946175454086       5.673358360715
       190    1        7.014037911335      20.391546514799       7.114311720273
       191    1        5.589950983410      18.936686801248       8.493337419271
       192    1        7.070505151433      20.478933685520       9.969980194750
       193    1        5.670563921663      21.883069840311      11.367550153495
       194    1        7.088778108635      23.275711861419       1.375960985062
       195    1        5.670389219266      21.883466003706       2.803876978455
       196    1        7.081371868867      23.279897782429       4.242208431849
       197    1        5.633920379451      21.855363580345       5.659142267205
       198    1        7.068759383498      23.265335823129       7.091321684180
       199    1        5.626007502733      21.840785949211       8.511071311104
       200    1        7.082517596872      23.270359031108       9.921346358906
       201    1        5.666563921890      24.699068620676      11.353231636422
       202    1        7.088668377260      26.075552467714       1.380958501264
       203    1        5.669618130846      24.687606858321       2.810170717928
       204    1        7.092277523240      26.084689403504       4.233752036565
       205    1        5.655884467155      24.685436694768       5.670281086476
       206    1        7.093720473688      26.073306000316       7.091257855004
       207    1        5.649015465803      24.676838253450       8.509495563998
       208    1        7.090946473674      26.080758085557       9.931222639355
       209    1        5.665408145643      27.478239363288      11.358555606318
       210    1        7.079699179059      28.880481795390       1.379173910574
       211    1        5.660412342209      27.479212558451       2.791264835640
       212    1        7.076728553210      28.881619159431       4.227808843730
       213    1        5.674252996844      27.485187637623       5.666881240818
       214    1        7.096938537506      28.880587130664       7.076552480599
       215    1        5.669885094377      27.482309929328       8.513056638273
       216    1        7.092502124295      28.886506202300       9.944454690216
       217    1        8.516227315493      30.290876406931      11.366537222149
       218    1        9.939319124866       1.283429638593       1.381437619732
       219    1        8.509724389882      30.279668733809       2.803823083336
       220    1        9.925060440509       1.278993738994       4.239827911873
       221    1        8.505769607200      30.274446673387       5.664390304360
       222    1        9.933912485339       1.281293130944       7.094520336621
       223    1        8.510920815837      30.286202089931       8.517537126729
       224    1        9.937933152520       1.295610763793       9.935610067384
       225    1        8.511724675230       2.688833927313      11.364082710570
       226    1        9.949741207572       4.067436041014       1.386966779306
       227    1        8.507258003107       2.674639870725       2.802462345781
       228    1        9.950891388775       4.066003995123       4.245814723215
       229    1        8.492692733173       2.669414213488       5.660835053498
       230    1        9.935620800734       4.073214066149       7.075551652817
       231    1        8.509215811794       2.681206625836       8.509480491634
       232    1        9.949136600259       4.074594985896       9.934768983820
       233    1        8.522887473261       5.477436544482      11.361560144985
       234    1        9.946819566906       6.883469248030       1.362942573537
       235    1        8.532624448531       5.466283080489       2.809016882819
       236    1        9.950396969575       6.880072827741       4.213867135748
       237    1        8.515703893411       5.475528177621       5.659366297337
       238    1        9.915238968656       6.900547692710       7.091286058594
       239    1        8.510318948953       5.477234609055       8.510213328223
       240    1        9.941616404288       6.900981622655       9.927244677204
       241    1        8.537868489226       8.307694637922      11.350388668926
       242    1        9.959799726599       9.695313194136       1.372056900330
       243    1        8.527347636863       8.282075814782       2.794875009281
       244    1        9.933184101948       9.759979289404       4.228692403955
       245    1        8.522218351664       8.306443203487       5.650027483673
       246    1        9.934278903633       9.803208885730       7.072285745663
       247    1        8.525151639157       8.327449626215       8.498363481617
       248    1        9.922609240283       9.769968413250       9.919669901007
       249    1        8.488270821403      11.234439071323      11.319222103938
       250    1        9.942645778212      12.803367380422       1.432498334488
       251    1        8.531285520229      11.247298196003       2.833849972103
       252    1        9.944792790737      12.754961711513       4.215927824735
       253    1        8.538810055214      11.295291258937       5.649514109833
       254    1        9.933114906097      12.720309232535       7.069136420958
       255    1        8.533546032219      11.259138137682       8.499583087040
       256    1        9.951633474314      12.665731173503       9.898256182944
       257    1        8.471190293696      19.002105144520      11.376850601142
       258    1        9.932503790263      20.446346805567       1.403879569874
       259    1        8.531355287003      18.978970178517       2.805337284958
       260    1        9.941117874442      20.411612113693       4.245980405030
       261    1        8.526345553052      18.847973176825       5.623763661691
       262    1        9.990360770798      20.411449229392       7.028801291504
       263    1        8.481306247563      18.845201317635       8.470086357246
       264    1        9.920148562737      20.440622989561      10.003147616009
       265    1        8.507026893532      21.853048259646      11.387949798366
       266    1        9.944028781759      23.274313728347       1.383508813700
       267    1        8.509490311508      21.855513618881       2.818365744725
       268    1        9.947983450257      23.267059467888       4.234026650463
       269    1        8.493543294056      21.902142975394       5.632774994000
       270    1        9.936013367295      23.273798356252       7.076416258403
       271    1        8.493783081659      21.856035670774       8.506039196976
       272    1        9.920945913609      23.260925101229       9.945835752625
       273    1        8.500106394938      24.674140128952      11.369362833590
       274    1        9.940250870980      26.078402172241       1.375041913435
       275    1        8.518290173987      24.673062626176       2.794380475896
       276    1        9.948669471171      26.067013630747       4.220550016246
       277    1        8.516613944457      24.671968680822       5.660126081485
       278    1        9.942029295703      26.068490379901       7.087982813084
       279    1        8.506703066083      24.668271926546       8.513535642556
       280    1        9.929004375657      26.071911977889       9.958017305416
       281    1        8.510304904251      27.490230884995      11.376622917104
       282    1        9.942965266647      28.868119801818       1.383931410804
       283    1        8.507339188339      27.466636297517       2.807534995432
       284    1        9.932764016904      28.877032964380       4.235451559748
       285    1        8.509143989698      27.478126320555       5.653301155378
       286    1        9.939593738763      28.874818611395       7.084120748275
       287    1        8.517707261743      27.485846368456       8.516937886090
       288    1        9.945973116667      28.891318482816       9.958779715809
       289    2        4.208290361207      11.210449348111       4.833629025769
       290    2        8.490890329690      20.383144870603       6.296092475169
       291    2        4.226548246045      11.295051813876       7.743332494756
       292    2        2.719826171081      12.716716528956       3.121916182830
       293    2        9.381006119489      11.254088210512       1.373137657313
       294    2        4.151636771887      18.990124670171       4.812418442060
       295    2       11.362851115766      12.743490443292       2.343479299662
       296    2        9.929346358453      18.190778696770      11.338591461408
       297    2        0.846048423396      18.889571874815       9.977196659757
       298    2        3.788625973475      18.925377132752       1.416074482260
       299    2        6.728664401207      11.260294513455       1.299167292404
       300    2        7.104913416447      11.243376383923       3.697243603045
       301    2        6.277012118853       9.751981259147       5.667080036159
       302    2        2.409421689804      12.725896626516      11.347959963061
       303    2        0.607282087126      20.384386028426       8.508569298743
       304    2        5.659784212874       9.763071265060       7.829197009886
       305    2        7.038686592534      18.931349128940       9.352534424606
       306    2        0.558398872175       9.791018768495       5.688175293449
       307    2        5.256133983121      12.783520673365       2.774208971801
       308    2        9.900560427625      19.722447093495       8.514035999355
