LAMMPS (29 Aug 2024 - Update 1)
# LAMMPS input script to relax a molecule with fixed box dimensions
variable distFixed equal 4
variable ybottom equal ylo
variable ytop equal yhi
variable ybottomFixed equal v_ybottom+v_distFixed
variable ytopFixed equal v_ytop-v_distFixed

# Initialize simulation
dimension	3
units		metal
atom_style	atomic
boundary p f p

# Read data file
read_data initial.lmp
Reading data file ...
  orthogonal box = (0 0 0) to (14.06521 27.564013 8.1205527)
  1 by 1 by 1 MPI processor grid
  reading atoms ...
  256 atoms
  read_data CPU = 0.001 seconds

region 1 block INF INF ${ybottom} ${ybottomFixed} INF INF units box
region 1 block INF INF 0 ${ybottomFixed} INF INF units box
region 1 block INF INF 0 4 INF INF units box
group		lower region 1
40 atoms in group lower
region 2 block INF INF ${ytopFixed} ${ytop} INF INF units box
region 2 block INF INF 23.56401269 ${ytop} INF INF units box
region 2 block INF INF 23.56401269 27.56401269 INF INF units box
group		upper region 2
40 atoms in group upper
group		boundary union lower upper
80 atoms in group boundary
group		mobile subtract all boundary
176 atoms in group mobile

pair_style mlip ../mlip.ini
pair_coeff * *
mass 1 55.8
mass 2 1.0

# Minimize energy
fix		fflow lower setforce 0.0 0.0 0.0
fix		ffup upper setforce 0.0 0.0 0.0
min_style cg
minimize 1.0e-6 1.0e-10 1000 10000

CITE-CITE-CITE-CITE-CITE-CITE-CITE-CITE-CITE-CITE-CITE-CITE-CITE

Your simulation uses code contributions which should be cited:

- Type Label Framework: https://doi.org/10.1021/acs.jpcb.3c08419

@Article{Gissinger24,
 author = {Jacob R. Gissinger, Ilia Nikiforov, Yaser Afshar, Brendon Waters, Moon-ki Choi, Daniel S. Karls, Alexander Stukowski, Wonpil Im, Hendrik Heinz, Axel Kohlmeyer, and Ellad B. Tadmor},
 title = {Type Label Framework for Bonded Force Fields in LAMMPS},
 journal = {J. Phys. Chem. B},
 year =    2024,
 volume =  128,
 number =  13,
 pages =   {3282–-3297}
}

CITE-CITE-CITE-CITE-CITE-CITE-CITE-CITE-CITE-CITE-CITE-CITE-CITE

Neighbor list info ...
  update: every = 1 steps, delay = 0 steps, check = yes
  max neighbors/atom: 2000, page size: 100000
  master list distance cutoff = 8.5
  ghost atom cutoff = 8.5
  binsize = 4.25, bins = 4 7 2
  1 neighbor lists, perpetual/occasional/extra = 1 0 0
  (1) pair mlip, perpetual
      attributes: full, newton on
      pair build: full/bin/atomonly
      stencil: full/bin/3d
      bin: standard
Per MPI rank memory allocation (min/avg/max) = 4.262 | 4.262 | 4.262 Mbytes
   Step          Temp          E_pair         E_mol          TotEng         Press     
         0   0             -1952.3276      0             -1952.3276     -17535.836    
        67   0             -1960.9433      0             -1960.9433     -108548.34    
Loop time of 12.3744 on 1 procs for 67 steps with 256 atoms

100.0% CPU use with 1 MPI tasks x no OpenMP threads

Minimization stats:
  Stopping criterion = energy tolerance
  Energy initial, next-to-last, final = 
     -1952.32764419281  -1960.94188737864  -1960.94327280337
  Force two-norm initial, final = 5.4866807 0.09784759
  Force max component initial, final = 1.3151159 0.027920936
  Final line search alpha, max atom move = 1 0.027920936
  Iterations, force evaluations = 67 99

MPI task timing breakdown:
Section |  min time  |  avg time  |  max time  |%varavg| %total
---------------------------------------------------------------
Pair    | 12.369     | 12.369     | 12.369     |   0.0 | 99.96
Neigh   | 0.0040684  | 0.0040684  | 0.0040684  |   0.0 |  0.03
Comm    | 0.0005998  | 0.0005998  | 0.0005998  |   0.0 |  0.00
Output  | 0          | 0          | 0          |   0.0 |  0.00
Modify  | 0.00012722 | 0.00012722 | 0.00012722 |   0.0 |  0.00
Other   |            | 0.0006721  |            |       |  0.01

Nlocal:            256 ave         256 max         256 min
Histogram: 1 0 0 0 0 0 0 0 0 0
Nghost:           1607 ave        1607 max        1607 min
Histogram: 1 0 0 0 0 0 0 0 0 0
Neighs:              0 ave           0 max           0 min
Histogram: 1 0 0 0 0 0 0 0 0 0
FullNghs:        44622 ave       44622 max       44622 min
Histogram: 1 0 0 0 0 0 0 0 0 0

Total # of neighbors = 44622
Ave neighs/atom = 174.30469
Neighbor list builds = 4
Dangerous builds = 0

# Write the relaxed structure to a data file
write_data relaxed.data
System init for write_data ...
Total wall time: 0:00:12
