LAMMPS data file via write_data, version 29 Aug 2024, timestep = 16, units = metal

240 atoms
1 atom types

0 13.98284573 xlo xhi
0 26.01841258 ylo yhi
0 8.07299975 zlo zhi

Masses

1 55.8

Atoms # atomic

14 1 1.104123392353 0.978309288037 6.019465798333 0 0 0
20 1 2.26936048991 1.511660948117 4.001215860833 0 0 0
119 1 2.2693605368800753 4.127718975799812 8.037715735833231 0 0 0
162 1 4.599834824853 3.240284549262 8.037715735833 0 0 0
164 1 3.434597727296 2.374575787602 1.982965923333 0 0 0
165 1 1.104123392353 3.240284549262 1.982965923333 0 0 0
171 1 4.599834824853 0.978309288037 4.001215860833 0 0 0
207 1 4.599834824853 3.240284549262 4.001215860833 0 0 0
209 1 3.434597727296 2.374575787602 6.019465798333 0 0 0
210 1 1.104123392353 3.240284549262 6.019465798333 0 0 0
211 1 2.2693605368802743 4.127718975799834 4.001215860832831 0 0 0
227 1 4.599834824853 0.978309288037 8.037715735833 0 0 0
230 1 1.104123392353 0.978309288037 1.982965923333 0 0 0
231 1 2.26936048991 1.511660948117 8.037715735833 0 0 0
16 1 8.095546257353 3.240284549262 6.019465798333 0 0 0
21 1 9.260783401880209 4.127718975799692 4.0012158608326995 0 0 0
25 1 6.930309159796 2.374575787602 4.001215860833 0 0 0
124 1 8.095546257353 3.240284549262 1.982965923333 0 0 0
125 1 9.260783401880333 4.1277189757999295 8.037715735832416 0 0 0
159 1 8.095546257353 0.978309288037 6.019465798333 0 0 0
160 1 9.26078335491 1.511660948117 4.001215860833 0 0 0
163 1 5.765071969380536 4.127718975799769 1.9829659233330246 0 0 0
168 1 8.095546257353 0.978309288037 1.982965923333 0 0 0
169 1 9.26078335491 1.511660948117 8.037715735833 0 0 0
172 1 5.76507192241 1.511660948117 6.019465798333 0 0 0
206 1 6.930309159796 2.374575787602 8.037715735833 0 0 0
208 1 5.765071969380021 4.127718975799885 6.019465798332965 0 0 0
228 1 5.76507192241 1.511660948117 1.982965923333 0 0 0
1 1 11.591257689853 3.240284549262 4.001215860833 0 0 0
7 1 12.756494834380515 4.12771897579978 6.019465798333398 0 0 0
11 1 10.426020592296 2.374575787602 6.019465798333 0 0 0
33 1 11.591257689853 0.978309288037 4.001215860833 0 0 0
36 1 12.75649478741 1.511660948117 6.019465798333 0 0 0
120 1 13.921732024796 2.374575787602 8.037715735833 0 0 0
121 1 11.591257689853 3.240284549262 8.037715735833 0 0 0
122 1 12.756494834379893 4.12771897579974 1.98296592333348 0 0 0
123 1 10.426020592296 2.374575787602 1.982965923333 0 0 0
166 1 12.75649478741 1.511660948117 1.982965923333 0 0 0
213 1 13.921732024796 2.374575787602 4.001215860833 0 0 0
233 1 11.591257689853 0.978309288037 8.037715735833 0 0 0
12 1 3.4345976899363846 4.9942359824340015 1.9829659233329782 0 0 0
19 1 1.104123386667332 5.828526671864545 1.9829659233339454 0 0 0
28 1 2.269360549140094 6.684401908886957 8.037715735832503 0 0 0
31 1 4.599834819166644 5.828526671864745 8.037715735832913 0 0 0
72 1 4.599834819166505 5.82852667186462 4.001215860833528 0 0 0
74 1 3.434597689937528 4.994235982433817 6.019465798332818 0 0 0
75 1 1.1041233866655145 5.828526671864737 6.019465798334013 0 0 0
76 1 2.2693605491402677 6.684401908886713 4.001215860831586 0 0 0
106 1 4.5998348343432705 8.405622802372333 4.001215860832711 0 0 0
108 1 3.434597674177935 7.535174223769766 6.019465798333858 0 0 0
109 1 1.1041234018425052 8.405622802372196 6.019465798334407 0 0 0
201 1 4.599834834343272 8.405622802372205 8.03771573583218 0 0 0
203 1 3.4345976741768176 7.535174223769574 1.982965923333711 0 0 0
204 1 1.1041234018436898 8.405622802372411 1.982965923334036 0 0 0
5 1 5.765071981640712 6.684401908886994 1.982965923332614 0 0 0
69 1 8.095546251665978 5.8285266718645525 1.9829659233330998 0 0 0
70 1 9.260783414140636 6.684401908886718 8.037715735832267 0 0 0
71 1 6.930309122436911 4.994235982433927 8.037715735833169 0 0 0
73 1 5.765071981639638 6.684401908886793 6.019465798332759 0 0 0
81 1 8.095546251667017 5.828526671864671 6.019465798333179 0 0 0
130 1 8.095546266842593 8.405622802372413 1.9829659233328774 0 0 0
132 1 6.930309106676958 7.535174223769612 8.037715735833684 0 0 0
188 1 8.095546266844066 8.405622802372292 6.019465798332518 0 0 0
190 1 6.93030910667728 7.53517422376974 4.00121586083296 0 0 0
199 1 9.260783414140288 6.684401908887042 4.00121586083314 0 0 0
200 1 6.930309122436857 4.994235982433878 4.001215860832803 0 0 0
32 1 13.921731987437294 4.994235982433821 8.037715735831794 0 0 0
35 1 11.591257684165901 5.8285266718645525 8.03771573583233 0 0 0
38 1 12.756494846639256 6.684401908886964 1.9829659233347758 0 0 0
68 1 10.426020554937498 4.994235982434111 1.9829659233336705 0 0 0
77 1 13.92173198743694 4.994235982434034 4.001215860832598 0 0 0
78 1 11.591257684166616 5.828526671864717 4.00121586083116 0 0 0
79 1 12.756494846641488 6.684401908886917 6.019465798334169 0 0 0
80 1 10.426020554936454 4.9942359824338585 6.019465798334069 0 0 0
111 1 13.921731971676964 7.535174223769554 4.001215860832175 0 0 0
112 1 11.591257699343434 8.405622802372207 4.0012158608321355 0 0 0
126 1 13.921731971677556 7.535174223769805 8.037715735831016 0 0 0
127 1 11.5912576993431 8.405622802372418 8.037715735832997 0 0 0
129 1 10.426020539178051 7.535174223769449 1.9829659233333352 0 0 0
187 1 10.426020539176182 7.53517422376974 6.019465798333445 0 0 0
51 1 4.599834826775778 11.012804416403574 4.001215860832804 0 0 0
53 1 3.434597684872861 10.122151481649254 6.019465798333425 0 0 0
54 1 1.1041233942758006 11.012804416403611 6.01946579833312 0 0 0
64 1 3.434597681981202 12.892794274361409 6.019465798333023 0 0 0
110 1 2.2693605336894596 9.246826846065625 4.001215860831868 0 0 0
152 1 3.434597684872294 10.122151481649283 1.9829659233336578 0 0 0
153 1 1.1041233942760484 11.012804416403581 1.9829659233332564 0 0 0
154 1 2.269360537437872 11.71664120310557 8.037715735832927 0 0 0
177 1 2.2693605374378927 11.716641203105183 4.001215860832843 0 0 0
191 1 4.599834826775957 11.012804416403634 8.037715735832588 0 0 0
195 1 3.434597681981198 12.892794274361405 1.9829659233329981 0 0 0
205 1 2.2693605336892637 9.246826846065183 8.03771573583232 0 0 0
3 1 6.930309117372677 10.12215148164921 4.001215860832679 0 0 0
40 1 6.930309114481197 12.892794274361396 8.03771573583298 0 0 0
48 1 8.095546259275757 11.01280441640359 1.9829659233330228 0 0 0
49 1 9.260783402437866 11.716641203105304 8.037715735832965 0 0 0
50 1 6.930309117372596 10.12215148164933 8.037715735833018 0 0 0
52 1 5.765071969937779 11.716641203105405 6.0194657983331945 0 0 0
98 1 6.930309114481204 12.892794274361416 4.001215860832968 0 0 0
107 1 5.765071966188819 9.246826846065368 6.019465798333301 0 0 0
131 1 9.260783398689478 9.246826846065447 8.03771573583288 0 0 0
184 1 8.095546259276084 11.01280441640358 6.019465798333057 0 0 0
185 1 9.260783402437836 11.716641203105517 4.001215860833041 0 0 0
189 1 9.260783398689092 9.246826846065213 4.001215860833595 0 0 0
192 1 5.7650719699379644 11.71664120310549 1.982965923333136 0 0 0
202 1 5.765071966189754 9.24682684606521 1.9829659233333556 0 0 0
34 1 10.426020546981198 12.892794274361401 1.9829659233330035 0 0 0
66 1 13.92173197948119 12.892794274361407 4.001215860833026 0 0 0
96 1 10.426020546981206 12.892794274361409 6.019465798332987 0 0 0
128 1 12.756494831188984 9.246826846065323 1.98296592333339 0 0 0
155 1 13.921731982372535 10.122151481649203 8.037715735832624 0 0 0
156 1 11.59125769177587 11.012804416403561 8.037715735833185 0 0 0
157 1 12.756494834937786 11.716641203105384 1.982965923332957 0 0 0
158 1 10.426020549872845 10.122151481649322 1.9829659233327261 0 0 0
179 1 13.921731982372572 10.122151481649274 4.001215860832834 0 0 0
181 1 11.591257691775988 11.012804416403654 4.001215860832978 0 0 0
182 1 12.756494834937918 11.716641203105482 6.019465798332934 0 0 0
183 1 10.426020549872222 10.122151481649249 6.019465798333002 0 0 0
186 1 12.75649483118989 9.246826846065296 6.019465798333388 0 0 0
197 1 13.921731979481207 12.892794274361416 8.037715735833016 0 0 0
63 1 2.269360536629981 14.070815551415748 4.001215860832978 0 0 0
65 1 4.599834826200948 14.776515991711712 4.001215860832954 0 0 0
67 1 1.1041233937009944 14.776515991711706 6.01946579833301 0 0 0
89 1 2.2693605357846764 16.54334144042795 8.037715735832819 0 0 0
90 1 3.4345976820178787 15.668589491927637 1.9829659233331214 0 0 0
174 1 2.269360535784558 16.54334144042782 4.001215860832867 0 0 0
175 1 3.434597682017822 15.668589491927634 6.019465798333055 0 0 0
194 1 2.269360536629992 14.07081555141545 8.037715735832958 0 0 0
196 1 4.59983482620098 14.776515991711705 8.03771573583296 0 0 0
198 1 1.1041233937009356 14.776515991711706 1.9829659233331192 0 0 0
24 1 9.260783401629975 14.070815551415668 8.037715735833025 0 0 0
41 1 8.095546258700974 14.776515991711703 1.9829659233329404 0 0 0
43 1 9.260783400784701 16.543341440427923 4.00121586083302 0 0 0
46 1 6.930309114517805 15.668589491927634 4.0012158608330415 0 0 0
62 1 5.765071969130014 14.070815551415606 6.019465798333017 0 0 0
88 1 5.7650719682846 16.543341440427895 1.9829659233330155 0 0 0
95 1 9.260783401630018 14.070815551415507 4.001215860833011 0 0 0
99 1 8.095546258700923 14.776515991711712 6.019465798333023 0 0 0
101 1 9.260783400784552 16.54334144042781 8.037715735833055 0 0 0
104 1 6.930309114517899 15.668589491927651 8.03771573583298 0 0 0
173 1 5.765071968284705 16.54334144042784 6.019465798332987 0 0 0
193 1 5.765071969129977 14.070815551415539 1.9829659233330243 0 0 0
9 1 12.75649483413 14.07081555141561 1.982965923332979 0 0 0
39 1 11.591257691200965 14.776515991711713 8.037715735833006 0 0 0
42 1 12.756494833284545 16.543341440427902 6.019465798333242 0 0 0
44 1 10.4260205470179 15.668589491927639 6.019465798332973 0 0 0
92 1 13.921731979517807 15.668589491927634 8.037715735832924 0 0 0
94 1 12.756494834129978 14.070815551415524 6.019465798333005 0 0 0
97 1 11.591257691200916 14.776515991711713 4.001215860833001 0 0 0
100 1 12.756494833284604 16.543341440427866 1.9829659233330919 0 0 0
102 1 10.426020547017872 15.668589491927635 1.982965923332998 0 0 0
178 1 13.921731979517961 15.668589491927609 4.00121586083287 0 0 0
91 1 4.599834828143484 17.388645358896056 8.037715735833034 0 0 0
93 1 1.104123395643592 17.38864535889601 1.9829659233332908 0 0 0
114 1 2.269360540143249 19.106911642860606 8.03771573583291 0 0 0
115 1 3.434597679259131 18.26440436676619 1.982965923332923 0 0 0
116 1 4.599834824397632 19.979944418236265 8.037715735833112 0 0 0
118 1 1.1041233918978939 19.9799444182363 1.982965923333238 0 0 0
134 1 2.2693605401427606 19.1069116428606 4.0012158608329225 0 0 0
135 1 3.434597679258982 18.26440436676616 6.019465798333179 0 0 0
136 1 4.5998348243980365 19.979944418236336 4.001215860833076 0 0 0
138 1 1.104123391897862 19.979944418236272 6.019465798332984 0 0 0
176 1 4.599834828143627 17.38864535889597 4.00121586083293 0 0 0
180 1 1.1041233956436767 17.38864535889602 6.019465798333151 0 0 0
222 1 3.434597684155397 20.816806656182216 1.9829659233328332 0 0 0
224 1 3.43459768415542 20.816806656182248 6.019465798333012 0 0 0
23 1 6.930309116655306 20.81680665618219 4.001215860832954 0 0 0
47 1 8.095546260643479 17.388645358896035 6.019465798332954 0 0 0
83 1 9.260783405142883 19.10691164286058 4.001215860832694 0 0 0
86 1 6.930309111759123 18.264404366766218 4.001215860833126 0 0 0
87 1 8.095546256897762 19.979944418236276 6.019465798333195 0 0 0
105 1 8.095546260643598 17.388645358896042 1.982965923332929 0 0 0
113 1 5.765071972642873 19.10691164286058 1.9829659233329813 0 0 0
133 1 5.765071972643075 19.106911642860673 6.019465798332826 0 0 0
147 1 9.260783405142869 19.106911642860677 8.037715735832855 0 0 0
150 1 6.930309111759185 18.264404366766115 8.037715735833034 0 0 0
151 1 8.095546256898027 19.97994441823628 1.982965923333158 0 0 0
217 1 6.930309116655525 20.816806656182276 8.037715735832824 0 0 0
15 1 10.426020549155453 20.81680665618228 6.0194657983332425 0 0 0
45 1 11.591257693143461 17.388645358896003 4.001215860832806 0 0 0
56 1 13.92173198165526 20.816806656182276 8.037715735832887 0 0 0
60 1 10.426020549155277 20.816806656182237 1.9829659233332206 0 0 0
82 1 12.756494837642919 19.106911642860656 6.019465798333367 0 0 0
84 1 10.426020544259202 18.264404366766126 6.019465798333194 0 0 0
85 1 11.591257689397947 19.979944418236304 4.001215860832745 0 0 0
103 1 11.591257693143724 17.388645358896046 8.037715735832768 0 0 0
117 1 13.921731976758895 18.26440436676613 8.037715735832723 0 0 0
137 1 13.921731976759242 18.264404366766247 4.001215860832712 0 0 0
146 1 12.756494837642961 19.10691164286061 1.9829659233332653 0 0 0
148 1 10.42602054425908 18.264404366766176 1.9829659233332737 0 0 0
149 1 11.59125768939798 19.979944418236265 8.03771573583266 0 0 0
226 1 13.921731981655398 20.816806656182177 4.001215860832902 0 0 0
2 1 1.104123392353 22.562058453958 6.019465798333 0 0 0
4 1 3.434597727296 25.91037779161 6.019465798333 0 0 0
13 1 2.26936048991 24.290681807918 8.037715735833 0 0 0
17 1 3.434597727296 23.427767215617 1.982965923333 0 0 0
22 1 4.599834824853 24.824033467998 8.037715735833 0 0 0
30 1 1.104123392353 24.824033467998 1.982965923333 0 0 0
55 1 4.599834824853 22.562058453958 8.037715735833 0 0 0
57 1 1.104123392353 22.562058453958 1.982965923333 0 0 0
139 1 2.26936048991 24.290681807918 4.001215860833 0 0 0
140 1 3.434597727296 23.427767215617 6.019465798333 0 0 0
141 1 4.599834824853 24.824033467998 4.001215860833 0 0 0
143 1 1.104123392353 24.824033467998 6.019465798333 0 0 0
220 1 2.269360537841886 21.662851816718867 8.037715735833045 0 0 0
223 1 2.2693605378417723 21.6628518167189 4.001215860833028 0 0 0
225 1 4.599834824853 22.562058453958 4.001215860833 0 0 0
229 1 3.434597727296 25.91037779161 1.982965923333 0 0 0
8 1 5.76507192241 24.290681807918 1.982965923333 0 0 0
10 1 9.260783402841836 21.662851816718906 4.001215860832836 0 0 0
27 1 8.095546257353 22.562058453958 6.019465798333 0 0 0
59 1 9.260783402841763 21.662851816718838 8.037715735832906 0 0 0
145 1 9.26078335491 24.290681807918 4.001215860833 0 0 0
161 1 6.930309159796 25.91037779161 4.001215860833 0 0 0
170 1 6.930309159796 25.91037779161 8.037715735833 0 0 0
215 1 6.930309159796 23.427767215617 4.001215860833 0 0 0
216 1 8.095546257353 24.824033467998 6.019465798333 0 0 0
218 1 5.765071970341767 21.662851816718916 1.9829659233331005 0 0 0
219 1 8.095546257353 22.562058453958 1.982965923333 0 0 0
221 1 5.765071970341803 21.662851816718845 6.019465798333007 0 0 0
235 1 9.26078335491 24.290681807918 8.037715735833 0 0 0
238 1 6.930309159796 23.427767215617 8.037715735833 0 0 0
239 1 8.095546257353 24.824033467998 1.982965923333 0 0 0
240 1 5.76507192241 24.290681807918 6.019465798333 0 0 0
6 1 12.756494835341794 21.66285181671883 6.019465798333083 0 0 0
18 1 11.591257689853 22.562058453958 4.001215860833 0 0 0
26 1 13.921732024796 23.427767215617 8.037715735833 0 0 0
29 1 13.921732024796 25.91037779161 4.001215860833 0 0 0
37 1 10.426020592296 25.91037779161 6.019465798333 0 0 0
58 1 12.756494835341858 21.662851816718888 1.9829659233330525 0 0 0
61 1 11.591257689853 22.562058453958 8.037715735833 0 0 0
142 1 13.921732024796 23.427767215617 4.001215860833 0 0 0
144 1 12.75649478741 24.290681807918 6.019465798333 0 0 0
167 1 10.426020592296 25.91037779161 1.982965923333 0 0 0
212 1 10.426020592296 23.427767215617 6.019465798333 0 0 0
214 1 11.591257689853 24.824033467998 4.001215860833 0 0 0
232 1 13.921732024796 25.91037779161 8.037715735833 0 0 0
234 1 12.75649478741 24.290681807918 1.982965923333 0 0 0
236 1 10.426020592296 23.427767215617 1.982965923333 0 0 0
237 1 11.591257689853 24.824033467998 8.037715735833 0 0 0

Velocities

14 0 0 0
20 0 0 0
119 0 0 0
162 0 0 0
164 0 0 0
165 0 0 0
171 0 0 0
207 0 0 0
209 0 0 0
210 0 0 0
211 0 0 0
227 0 0 0
230 0 0 0
231 0 0 0
16 0 0 0
21 0 0 0
25 0 0 0
124 0 0 0
125 0 0 0
159 0 0 0
160 0 0 0
163 0 0 0
168 0 0 0
169 0 0 0
172 0 0 0
206 0 0 0
208 0 0 0
228 0 0 0
1 0 0 0
7 0 0 0
11 0 0 0
33 0 0 0
36 0 0 0
120 0 0 0
121 0 0 0
122 0 0 0
123 0 0 0
166 0 0 0
213 0 0 0
233 0 0 0
12 0 0 0
19 0 0 0
28 0 0 0
31 0 0 0
72 0 0 0
74 0 0 0
75 0 0 0
76 0 0 0
106 0 0 0
108 0 0 0
109 0 0 0
201 0 0 0
203 0 0 0
204 0 0 0
5 0 0 0
69 0 0 0
70 0 0 0
71 0 0 0
73 0 0 0
81 0 0 0
130 0 0 0
132 0 0 0
188 0 0 0
190 0 0 0
199 0 0 0
200 0 0 0
32 0 0 0
35 0 0 0
38 0 0 0
68 0 0 0
77 0 0 0
78 0 0 0
79 0 0 0
80 0 0 0
111 0 0 0
112 0 0 0
126 0 0 0
127 0 0 0
129 0 0 0
187 0 0 0
51 0 0 0
53 0 0 0
54 0 0 0
64 0 0 0
110 0 0 0
152 0 0 0
153 0 0 0
154 0 0 0
177 0 0 0
191 0 0 0
195 0 0 0
205 0 0 0
3 0 0 0
40 0 0 0
48 0 0 0
49 0 0 0
50 0 0 0
52 0 0 0
98 0 0 0
107 0 0 0
131 0 0 0
184 0 0 0
185 0 0 0
189 0 0 0
192 0 0 0
202 0 0 0
34 0 0 0
66 0 0 0
96 0 0 0
128 0 0 0
155 0 0 0
156 0 0 0
157 0 0 0
158 0 0 0
179 0 0 0
181 0 0 0
182 0 0 0
183 0 0 0
186 0 0 0
197 0 0 0
63 0 0 0
65 0 0 0
67 0 0 0
89 0 0 0
90 0 0 0
174 0 0 0
175 0 0 0
194 0 0 0
196 0 0 0
198 0 0 0
24 0 0 0
41 0 0 0
43 0 0 0
46 0 0 0
62 0 0 0
88 0 0 0
95 0 0 0
99 0 0 0
101 0 0 0
104 0 0 0
173 0 0 0
193 0 0 0
9 0 0 0
39 0 0 0
42 0 0 0
44 0 0 0
92 0 0 0
94 0 0 0
97 0 0 0
100 0 0 0
102 0 0 0
178 0 0 0
91 0 0 0
93 0 0 0
114 0 0 0
115 0 0 0
116 0 0 0
118 0 0 0
134 0 0 0
135 0 0 0
136 0 0 0
138 0 0 0
176 0 0 0
180 0 0 0
222 0 0 0
224 0 0 0
23 0 0 0
47 0 0 0
83 0 0 0
86 0 0 0
87 0 0 0
105 0 0 0
113 0 0 0
133 0 0 0
147 0 0 0
150 0 0 0
151 0 0 0
217 0 0 0
15 0 0 0
45 0 0 0
56 0 0 0
60 0 0 0
82 0 0 0
84 0 0 0
85 0 0 0
103 0 0 0
117 0 0 0
137 0 0 0
146 0 0 0
148 0 0 0
149 0 0 0
226 0 0 0
2 0 0 0
4 0 0 0
13 0 0 0
17 0 0 0
22 0 0 0
30 0 0 0
55 0 0 0
57 0 0 0
139 0 0 0
140 0 0 0
141 0 0 0
143 0 0 0
220 0 0 0
223 0 0 0
225 0 0 0
229 0 0 0
8 0 0 0
10 0 0 0
27 0 0 0
59 0 0 0
145 0 0 0
161 0 0 0
170 0 0 0
215 0 0 0
216 0 0 0
218 0 0 0
219 0 0 0
221 0 0 0
235 0 0 0
238 0 0 0
239 0 0 0
240 0 0 0
6 0 0 0
18 0 0 0
26 0 0 0
29 0 0 0
37 0 0 0
58 0 0 0
61 0 0 0
142 0 0 0
144 0 0 0
167 0 0 0
212 0 0 0
214 0 0 0
232 0 0 0
234 0 0 0
236 0 0 0
237 0 0 0
