LAMMPS data file via write_data, version 29 Aug 2024, timestep = 3, units = metal

288 atoms
1 atom types

0 11.317147 xlo xhi
0 30.563582 ylo yhi
0 11.317147 zlo zhi

Masses

1 55.8

Atoms # atomic

1 1 0 0 0 0 0 0
2 1 1.414643375 1.414643557616 1.414643375 0 0 0
3 1 0 0 2.82928675 0 0 0
4 1 1.414643375 1.414643557616 4.243930125 0 0 0
9 1 0 2.82928660596 0 0 0 0
10 1 1.4146433749999983 4.240746672836411 1.4146433749999976 0 0 0
11 1 0 2.82928660596 2.82928675 0 0 0
12 1 1.4146433749999998 4.2407466728364085 4.243930124999995 0 0 0
73 1 2.82928675 0 0 0 0 0
74 1 4.243930125 1.414643557616 1.414643375 0 0 0
75 1 2.82928675 0 2.82928675 0 0 0
76 1 4.243930125 1.414643557616 4.243930125 0 0 0
81 1 2.82928675 2.82928660596 0 0 0 0
82 1 4.243930125000001 4.240746672836404 1.4146433749999996 0 0 0
83 1 2.82928675 2.82928660596 2.82928675 0 0 0
84 1 4.243930124999999 4.240746672836406 4.243930125000001 0 0 0
145 1 5.6585735 0 0 0 0 0
146 1 7.073216875 1.414643557616 1.414643375 0 0 0
147 1 5.6585735 0 2.82928675 0 0 0
148 1 7.073216875 1.414643557616 4.243930125 0 0 0
153 1 5.6585735 2.82928660596 0 0 0 0
154 1 7.073216875000003 4.240746672836409 1.4146433750000007 0 0 0
155 1 5.6585735 2.82928660596 2.82928675 0 0 0
156 1 7.073216875 4.240746672836409 4.243930124999996 0 0 0
217 1 8.48786025 0 0 0 0 0
218 1 9.902503625 1.414643557616 1.414643375 0 0 0
219 1 8.48786025 0 2.82928675 0 0 0
220 1 9.902503625 1.414643557616 4.243930125 0 0 0
225 1 8.48786025 2.82928660596 0 0 0 0
226 1 9.902503625 4.240746672836409 1.414643374999995 0 0 0
227 1 8.48786025 2.82928660596 2.82928675 0 0 0
228 1 9.902503625000003 4.240746672836409 4.243930125 0 0 0
17 1 1.479436338780362e-15 5.655711730343332 3.1368313157247177e-15 0 0 0
18 1 1.414643375000003 7.074916543186604 1.4146433750000018 0 0 0
19 1 1.3966102904197836e-15 5.655711730343334 2.829286750000001 0 0 0
20 1 1.4146433750000027 7.074916543186611 4.243930124999996 0 0 0
25 1 11.317146999999999 8.491573834876354 1.5899428521799505e-15 -1 0 0
27 1 6.557358255320007e-16 8.491573834876348 2.8292867500000023 0 0 0
89 1 2.829286749999997 5.655711730343331 2.880595627466318e-15 0 0 0
90 1 4.2439301249999986 7.0749165431866095 1.4146433750000036 0 0 0
91 1 2.8292867499999947 5.655711730343337 2.8292867499999956 0 0 0
92 1 4.243930124999995 7.074916543186614 4.243930124999999 0 0 0
97 1 2.8292867499999983 8.491573834876352 11.317146999999999 0 0 -1
99 1 2.8292867499999983 8.49157383487635 2.829286750000002 0 0 0
161 1 5.658573500000001 5.655711730343333 2.98525024553105e-16 0 0 0
162 1 7.073216875 7.074916543186615 1.4146433749999994 0 0 0
163 1 5.658573500000003 5.655711730343334 2.829286749999999 0 0 0
164 1 7.073216875000004 7.074916543186614 4.243930124999995 0 0 0
169 1 5.658573500000005 8.491573834876352 1.5689984620774383e-15 0 0 0
171 1 5.658573500000002 8.491573834876348 2.829286750000002 0 0 0
233 1 8.487860250000004 5.655711730343333 11.317146999999999 0 0 -1
234 1 9.902503625 7.074916543186609 1.4146433750000007 0 0 0
235 1 8.48786025 5.655711730343337 2.8292867500000005 0 0 0
236 1 9.902503625 7.074916543186612 4.243930124999998 0 0 0
241 1 8.487860249999999 8.49157383487635 11.317146999999999 0 0 -1
243 1 8.487860249999999 8.49157383487635 2.8292867499999987 0 0 0
26 1 1.414643374999999 9.899148644932106 1.4146433750000016 0 0 0
28 1 1.4146433749999994 9.899148644932104 4.243930125000006 0 0 0
33 1 0 11.32627914273416 0 0 0 0
34 1 1.4146433750000034 12.71374401000838 1.4146433749999967 0 0 0
35 1 11.317146999999997 11.326279142734156 2.82928675 -1 0 0
36 1 1.4146433749999996 12.713744010008382 4.243930125000001 0 0 0
98 1 4.243930125 9.899148644932104 1.4146433749999991 0 0 0
100 1 4.243930124999999 9.899148644932104 4.243930124999998 0 0 0
105 1 2.8292867500000023 11.32627914273416 11.317146999999999 0 0 -1
106 1 4.2439301249999986 12.71374401000838 1.414643374999999 0 0 0
107 1 2.829286749999999 11.326279142734156 2.829286749999995 0 0 0
108 1 4.243930125000001 12.713744010008384 4.243930125 0 0 0
170 1 7.0732168750000035 9.899148644932104 1.4146433749999954 0 0 0
172 1 7.073216874999996 9.8991486449321 4.243930125000002 0 0 0
177 1 5.658573500000001 11.326279142734158 11.317146999999999 0 0 -1
178 1 7.073216875 12.71374401000838 1.4146433749999983 0 0 0
179 1 5.6585735 11.32627914273416 2.8292867500000005 0 0 0
180 1 7.073216875 12.71374401000838 4.243930125000001 0 0 0
242 1 9.902503625 9.899148644932103 1.4146433749999983 0 0 0
244 1 9.902503625000001 9.899148644932101 4.243930124999997 0 0 0
249 1 8.487860249999999 11.326279142734158 1.652375134733269e-16 0 0 0
250 1 9.902503625 12.713744010008382 1.4146433749999985 0 0 0
251 1 8.48786025 11.32627914273416 2.829286749999999 0 0 0
252 1 9.902503624999996 12.71374401000838 4.243930124999999 0 0 0
41 1 1.5544289488584247e-15 19.26485765286256 11.317146999999999 0 0 -1
42 1 1.4146433749999978 20.652815642661416 1.4146433749999996 0 0 0
43 1 11.317146999999997 19.26485765286256 2.8292867500000014 -1 0 0
44 1 1.4146433749999983 20.652815642661416 4.243930124999999 0 0 0
113 1 2.8292867500000014 19.26485765286256 8.530371055947302e-16 0 0 0
114 1 4.243930125000001 20.652815642661416 1.4146433750000018 0 0 0
115 1 2.829286750000001 19.26485765286256 2.8292867499999996 0 0 0
116 1 4.2439301250000065 20.652815642661416 4.243930124999996 0 0 0
185 1 5.658573500000001 19.264857652862563 7.148047733621697e-16 0 0 0
186 1 7.073216875 20.652815642661416 1.4146433750000003 0 0 0
187 1 5.658573500000003 19.264857652862563 2.8292867500000014 0 0 0
188 1 7.073216875 20.652815642661416 4.2439301249999986 0 0 0
257 1 8.487860249999999 19.264857652862563 1.490587302351433e-15 0 0 0
258 1 9.902503624999998 20.652815642661416 1.4146433749999991 0 0 0
259 1 8.487860250000002 19.26485765286256 2.829286750000001 0 0 0
260 1 9.902503625 20.652815642661412 4.243930124999998 0 0 0
49 1 11.317146999999999 22.08012135832682 1.1034063671078547e-15 -1 0 0
50 1 1.4146433750000005 23.48776388368902 1.4146433749999974 0 0 0
51 1 6.421369034741955e-16 22.080121358326817 2.8292867499999996 0 0 0
52 1 1.4146433749999974 23.487763883689016 4.243930124999996 0 0 0
57 1 9.41739420525486e-16 24.90265400847573 11.317146999999999 0 0 -1
59 1 1.0712522767117222e-15 24.90265400847573 2.829286750000005 0 0 0
121 1 2.829286750000002 22.08012135832682 5.188098870660719e-15 0 0 0
122 1 4.243930124999999 23.487763883689016 1.4146433749999987 0 0 0
123 1 2.8292867499999996 22.08012135832682 2.8292867500000014 0 0 0
124 1 4.243930124999996 23.487763883689016 4.243930124999998 0 0 0
129 1 2.8292867500000005 24.902654008475725 11.317146999999999 0 0 -1
131 1 2.8292867499999965 24.902654008475725 2.8292867500000014 0 0 0
193 1 5.6585735 22.08012135832682 2.6446863536981127e-16 0 0 0
194 1 7.073216875000002 23.48776388368902 1.4146433749999971 0 0 0
195 1 5.658573499999999 22.080121358326814 2.829286750000003 0 0 0
196 1 7.073216875000004 23.48776388368902 4.243930124999995 0 0 0
201 1 5.658573500000003 24.902654008475725 11.317146999999995 0 0 -1
203 1 5.6585735000000055 24.90265400847573 2.8292867500000005 0 0 0
265 1 8.48786025 22.08012135832682 3.2068092913207747e-15 0 0 0
266 1 9.902503624999996 23.48776388368902 1.4146433749999998 0 0 0
267 1 8.487860249999997 22.080121358326817 2.8292867500000005 0 0 0
268 1 9.902503625000001 23.487763883689023 4.243930124999998 0 0 0
273 1 8.487860249999995 24.90265400847572 1.661159513576519e-15 0 0 0
275 1 8.48786025 24.902654008475725 2.8292867499999987 0 0 0
58 1 1.4146433749999956 26.312702404100545 1.414643374999997 0 0 0
60 1 1.4146433749999974 26.312702404100545 4.243930124999999 0 0 0
65 1 0 27.73429539404 0 0 0 0
66 1 1.414643375 29.148937423841 1.414643375 0 0 0
67 1 0 27.73429539404 2.82928675 0 0 0
68 1 1.414643375 29.148937423841 4.243930125 0 0 0
130 1 4.243930125000002 26.312702404100545 1.4146433749999978 0 0 0
132 1 4.243930125000003 26.312702404100545 4.243930125000005 0 0 0
137 1 2.82928675 27.73429539404 0 0 0 0
138 1 4.243930125 29.148937423841 1.414643375 0 0 0
139 1 2.82928675 27.73429539404 2.82928675 0 0 0
140 1 4.243930125 29.148937423841 4.243930125 0 0 0
202 1 7.073216875000001 26.31270240410054 1.4146433750000011 0 0 0
204 1 7.073216874999999 26.312702404100545 4.2439301249999986 0 0 0
209 1 5.6585735 27.73429539404 0 0 0 0
210 1 7.073216875 29.148937423841 1.414643375 0 0 0
211 1 5.6585735 27.73429539404 2.82928675 0 0 0
212 1 7.073216875 29.148937423841 4.243930125 0 0 0
274 1 9.902503625 26.31270240410055 1.4146433750000005 0 0 0
276 1 9.902503625000001 26.31270240410055 4.243930125 0 0 0
281 1 8.48786025 27.73429539404 0 0 0 0
282 1 9.902503625 29.148937423841 1.414643375 0 0 0
283 1 8.48786025 27.73429539404 2.82928675 0 0 0
284 1 9.902503625 29.148937423841 4.243930125 0 0 0
5 1 0 0 5.6585735 0 0 0
6 1 1.414643375 1.414643557616 7.073216875 0 0 0
7 1 0 0 8.48786025 0 0 0
8 1 1.414643375 1.414643557616 9.902503625 0 0 0
13 1 0 2.82928660596 5.6585735 0 0 0
14 1 1.4146433749999987 4.24074667283641 7.073216875000002 0 0 0
15 1 0 2.82928660596 8.48786025 0 0 0
16 1 1.414643375000001 4.2407466728364085 9.902503625000003 0 0 0
77 1 2.82928675 0 5.6585735 0 0 0
78 1 4.243930125 1.414643557616 7.073216875 0 0 0
79 1 2.82928675 0 8.48786025 0 0 0
80 1 4.243930125 1.414643557616 9.902503625 0 0 0
85 1 2.82928675 2.82928660596 5.6585735 0 0 0
86 1 4.243930125000002 4.240746672836412 7.073216874999999 0 0 0
87 1 2.82928675 2.82928660596 8.48786025 0 0 0
88 1 4.243930125000002 4.2407466728364085 9.902503625000003 0 0 0
149 1 5.6585735 0 5.6585735 0 0 0
150 1 7.073216875 1.414643557616 7.073216875 0 0 0
151 1 5.6585735 0 8.48786025 0 0 0
152 1 7.073216875 1.414643557616 9.902503625 0 0 0
157 1 5.6585735 2.82928660596 5.6585735 0 0 0
158 1 7.073216874999997 4.240746672836413 7.073216875000001 0 0 0
159 1 5.6585735 2.82928660596 8.48786025 0 0 0
160 1 7.073216875000001 4.2407466728364085 9.902503625000005 0 0 0
221 1 8.48786025 0 5.6585735 0 0 0
222 1 9.902503625 1.414643557616 7.073216875 0 0 0
223 1 8.48786025 0 8.48786025 0 0 0
224 1 9.902503625 1.414643557616 9.902503625 0 0 0
229 1 8.48786025 2.82928660596 5.6585735 0 0 0
230 1 9.902503625000001 4.2407466728364085 7.073216874999998 0 0 0
231 1 8.48786025 2.82928660596 8.48786025 0 0 0
232 1 9.902503625 4.24074667283641 9.902503625000005 0 0 0
21 1 11.317146999999997 5.655711730343333 5.658573499999998 -1 0 0
22 1 1.4146433750000025 7.074916543186613 7.073216875 0 0 0
23 1 11.317146999999997 5.655711730343338 8.487860250000002 -1 0 0
24 1 1.4146433750000031 7.07491654318661 9.902503625 0 0 0
29 1 4.1051239940571085e-16 8.491573834876352 5.658573499999998 0 0 0
31 1 11.317146999999997 8.491573834876352 8.487860249999999 -1 0 0
93 1 2.8292867500000023 5.655711730343334 5.658573499999997 0 0 0
94 1 4.243930125000001 7.074916543186612 7.073216874999999 0 0 0
95 1 2.8292867499999987 5.655711730343335 8.487860249999999 0 0 0
96 1 4.243930124999999 7.074916543186613 9.902503625 0 0 0
101 1 2.829286749999999 8.49157383487635 5.658573499999998 0 0 0
103 1 2.8292867500000005 8.49157383487635 8.48786025 0 0 0
165 1 5.658573499999999 5.655711730343332 5.658573500000006 0 0 0
166 1 7.073216874999999 7.074916543186611 7.073216875000003 0 0 0
167 1 5.658573500000001 5.655711730343334 8.487860249999999 0 0 0
168 1 7.073216875000005 7.074916543186613 9.902503625 0 0 0
173 1 5.6585735 8.491573834876352 5.6585735 0 0 0
175 1 5.658573500000001 8.49157383487635 8.487860249999997 0 0 0
237 1 8.48786025 5.655711730343337 5.6585735 0 0 0
238 1 9.902503625000001 7.074916543186611 7.073216875000003 0 0 0
239 1 8.487860250000002 5.655711730343337 8.487860250000004 0 0 0
240 1 9.902503624999996 7.07491654318661 9.902503624999996 0 0 0
245 1 8.487860249999999 8.491573834876352 5.658573500000001 0 0 0
247 1 8.487860249999999 8.491573834876348 8.487860250000006 0 0 0
30 1 1.414643374999999 9.899148644932104 7.073216874999998 0 0 0
32 1 1.4146433749999998 9.899148644932104 9.902503625000001 0 0 0
37 1 1.5368725463985605e-15 11.326279142734156 5.658573499999998 0 0 0
38 1 1.4146433749999994 12.71374401000838 7.073216875 0 0 0
39 1 6.428718888424626e-16 11.32627914273416 8.487860249999999 0 0 0
40 1 1.4146433749999985 12.71374401000838 9.902503625 0 0 0
102 1 4.243930125000001 9.899148644932103 7.073216875000001 0 0 0
104 1 4.2439301249999986 9.899148644932108 9.902503625000003 0 0 0
109 1 2.829286749999998 11.326279142734158 5.6585735 0 0 0
110 1 4.243930125000001 12.713744010008385 7.073216875000001 0 0 0
111 1 2.829286749999999 11.32627914273416 8.48786025 0 0 0
112 1 4.243930125 12.713744010008377 9.902503625000001 0 0 0
174 1 7.073216875000006 9.899148644932104 7.073216874999998 0 0 0
176 1 7.0732168750000035 9.899148644932106 9.902503625000001 0 0 0
181 1 5.658573500000004 11.32627914273416 5.6585735 0 0 0
182 1 7.073216874999998 12.713744010008377 7.073216875 0 0 0
183 1 5.658573500000001 11.326279142734162 8.487860250000002 0 0 0
184 1 7.073216875 12.71374401000838 9.902503625000001 0 0 0
246 1 9.902503625000001 9.899148644932104 7.073216875000002 0 0 0
248 1 9.902503624999998 9.899148644932103 9.902503625000001 0 0 0
253 1 8.487860249999997 11.326279142734162 5.658573500000003 0 0 0
254 1 9.902503625 12.713744010008382 7.073216875000003 0 0 0
255 1 8.487860249999997 11.326279142734158 8.48786025 0 0 0
256 1 9.902503625000001 12.71374401000838 9.902503625 0 0 0
45 1 2.317058428050909e-15 19.26485765286256 5.658573499999997 0 0 0
46 1 1.4146433749999978 20.652815642661416 7.0732168750000035 0 0 0
47 1 1.8398309742753315e-15 19.26485765286256 8.487860250000002 0 0 0
48 1 1.4146433749999998 20.652815642661416 9.902503624999994 0 0 0
117 1 2.8292867500000005 19.26485765286256 5.658573500000002 0 0 0
118 1 4.243930125000004 20.65281564266142 7.073216875000001 0 0 0
119 1 2.8292867499999996 19.26485765286256 8.487860250000002 0 0 0
120 1 4.243930125000001 20.652815642661412 9.902503625000001 0 0 0
189 1 5.658573500000001 19.26485765286256 5.658573500000001 0 0 0
190 1 7.073216875000001 20.652815642661416 7.073216874999999 0 0 0
191 1 5.658573499999998 19.264857652862563 8.487860249999999 0 0 0
192 1 7.073216874999999 20.652815642661412 9.902503625 0 0 0
261 1 8.487860250000002 19.264857652862563 5.658573499999998 0 0 0
262 1 9.902503625000001 20.652815642661416 7.073216875 0 0 0
263 1 8.487860249999999 19.26485765286256 8.487860250000002 0 0 0
264 1 9.902503625 20.652815642661412 9.902503625000003 0 0 0
53 1 11.317146999999999 22.08012135832682 5.6585735 -1 0 0
54 1 1.414643375000002 23.487763883689016 7.073216875000009 0 0 0
55 1 0 22.08012135832682 8.487860249999997 0 0 0
56 1 1.414643375 23.48776388368902 9.902503624999994 0 0 0
61 1 11.317146999999999 24.90265400847573 5.658573499999996 -1 0 0
63 1 3.173696327269262e-15 24.902654008475725 8.487860250000004 0 0 0
125 1 2.829286750000002 22.08012135832682 5.6585735 0 0 0
126 1 4.243930125000003 23.487763883689016 7.073216875000003 0 0 0
127 1 2.8292867499999974 22.08012135832682 8.487860249999997 0 0 0
128 1 4.243930125000005 23.487763883689023 9.902503625 0 0 0
133 1 2.8292867499999996 24.902654008475725 5.658573499999998 0 0 0
135 1 2.829286749999997 24.902654008475725 8.487860250000006 0 0 0
197 1 5.658573499999999 22.080121358326814 5.658573500000003 0 0 0
198 1 7.073216875000001 23.48776388368902 7.073216875000005 0 0 0
199 1 5.658573500000001 22.080121358326817 8.487860249999999 0 0 0
200 1 7.073216874999999 23.487763883689023 9.902503625 0 0 0
205 1 5.658573500000003 24.902654008475732 5.658573500000001 0 0 0
207 1 5.658573499999999 24.902654008475725 8.487860250000002 0 0 0
269 1 8.487860249999999 22.080121358326817 5.6585735 0 0 0
270 1 9.902503625000001 23.487763883689016 7.0732168750000035 0 0 0
271 1 8.487860249999999 22.08012135832682 8.487860249999999 0 0 0
272 1 9.902503625 23.48776388368902 9.902503624999996 0 0 0
277 1 8.48786025 24.902654008475725 5.658573499999999 0 0 0
279 1 8.48786025 24.902654008475725 8.48786025 0 0 0
62 1 1.414643375 26.31270240410055 7.073216875000003 0 0 0
64 1 1.4146433749999998 26.31270240410054 9.902503624999998 0 0 0
69 1 0 27.73429539404 5.6585735 0 0 0
70 1 1.414643375 29.148937423841 7.073216875 0 0 0
71 1 0 27.73429539404 8.48786025 0 0 0
72 1 1.414643375 29.148937423841 9.902503625 0 0 0
134 1 4.243930125 26.312702404100545 7.073216874999999 0 0 0
136 1 4.243930124999997 26.31270240410054 9.902503625000001 0 0 0
141 1 2.82928675 27.73429539404 5.6585735 0 0 0
142 1 4.243930125 29.148937423841 7.073216875 0 0 0
143 1 2.82928675 27.73429539404 8.48786025 0 0 0
144 1 4.243930125 29.148937423841 9.902503625 0 0 0
206 1 7.073216874999998 26.312702404100538 7.073216875 0 0 0
208 1 7.073216875 26.31270240410054 9.902503625000001 0 0 0
213 1 5.6585735 27.73429539404 5.6585735 0 0 0
214 1 7.073216875 29.148937423841 7.073216875 0 0 0
215 1 5.6585735 27.73429539404 8.48786025 0 0 0
216 1 7.073216875 29.148937423841 9.902503625 0 0 0
278 1 9.902503625000003 26.31270240410054 7.0732168750000035 0 0 0
280 1 9.902503625000003 26.31270240410054 9.902503624999998 0 0 0
285 1 8.48786025 27.73429539404 5.6585735 0 0 0
286 1 9.902503625 29.148937423841 7.073216875 0 0 0
287 1 8.48786025 27.73429539404 8.48786025 0 0 0
288 1 9.902503625 29.148937423841 9.902503625 0 0 0

Velocities

1 0 0 0
2 0 0 0
3 0 0 0
4 0 0 0
9 0 0 0
10 0 0 0
11 0 0 0
12 0 0 0
73 0 0 0
74 0 0 0
75 0 0 0
76 0 0 0
81 0 0 0
82 0 0 0
83 0 0 0
84 0 0 0
145 0 0 0
146 0 0 0
147 0 0 0
148 0 0 0
153 0 0 0
154 0 0 0
155 0 0 0
156 0 0 0
217 0 0 0
218 0 0 0
219 0 0 0
220 0 0 0
225 0 0 0
226 0 0 0
227 0 0 0
228 0 0 0
17 0 0 0
18 0 0 0
19 0 0 0
20 0 0 0
25 0 0 0
27 0 0 0
89 0 0 0
90 0 0 0
91 0 0 0
92 0 0 0
97 0 0 0
99 0 0 0
161 0 0 0
162 0 0 0
163 0 0 0
164 0 0 0
169 0 0 0
171 0 0 0
233 0 0 0
234 0 0 0
235 0 0 0
236 0 0 0
241 0 0 0
243 0 0 0
26 0 0 0
28 0 0 0
33 0 0 0
34 0 0 0
35 0 0 0
36 0 0 0
98 0 0 0
100 0 0 0
105 0 0 0
106 0 0 0
107 0 0 0
108 0 0 0
170 0 0 0
172 0 0 0
177 0 0 0
178 0 0 0
179 0 0 0
180 0 0 0
242 0 0 0
244 0 0 0
249 0 0 0
250 0 0 0
251 0 0 0
252 0 0 0
41 0 0 0
42 0 0 0
43 0 0 0
44 0 0 0
113 0 0 0
114 0 0 0
115 0 0 0
116 0 0 0
185 0 0 0
186 0 0 0
187 0 0 0
188 0 0 0
257 0 0 0
258 0 0 0
259 0 0 0
260 0 0 0
49 0 0 0
50 0 0 0
51 0 0 0
52 0 0 0
57 0 0 0
59 0 0 0
121 0 0 0
122 0 0 0
123 0 0 0
124 0 0 0
129 0 0 0
131 0 0 0
193 0 0 0
194 0 0 0
195 0 0 0
196 0 0 0
201 0 0 0
203 0 0 0
265 0 0 0
266 0 0 0
267 0 0 0
268 0 0 0
273 0 0 0
275 0 0 0
58 0 0 0
60 0 0 0
65 0 0 0
66 0 0 0
67 0 0 0
68 0 0 0
130 0 0 0
132 0 0 0
137 0 0 0
138 0 0 0
139 0 0 0
140 0 0 0
202 0 0 0
204 0 0 0
209 0 0 0
210 0 0 0
211 0 0 0
212 0 0 0
274 0 0 0
276 0 0 0
281 0 0 0
282 0 0 0
283 0 0 0
284 0 0 0
5 0 0 0
6 0 0 0
7 0 0 0
8 0 0 0
13 0 0 0
14 0 0 0
15 0 0 0
16 0 0 0
77 0 0 0
78 0 0 0
79 0 0 0
80 0 0 0
85 0 0 0
86 0 0 0
87 0 0 0
88 0 0 0
149 0 0 0
150 0 0 0
151 0 0 0
152 0 0 0
157 0 0 0
158 0 0 0
159 0 0 0
160 0 0 0
221 0 0 0
222 0 0 0
223 0 0 0
224 0 0 0
229 0 0 0
230 0 0 0
231 0 0 0
232 0 0 0
21 0 0 0
22 0 0 0
23 0 0 0
24 0 0 0
29 0 0 0
31 0 0 0
93 0 0 0
94 0 0 0
95 0 0 0
96 0 0 0
101 0 0 0
103 0 0 0
165 0 0 0
166 0 0 0
167 0 0 0
168 0 0 0
173 0 0 0
175 0 0 0
237 0 0 0
238 0 0 0
239 0 0 0
240 0 0 0
245 0 0 0
247 0 0 0
30 0 0 0
32 0 0 0
37 0 0 0
38 0 0 0
39 0 0 0
40 0 0 0
102 0 0 0
104 0 0 0
109 0 0 0
110 0 0 0
111 0 0 0
112 0 0 0
174 0 0 0
176 0 0 0
181 0 0 0
182 0 0 0
183 0 0 0
184 0 0 0
246 0 0 0
248 0 0 0
253 0 0 0
254 0 0 0
255 0 0 0
256 0 0 0
45 0 0 0
46 0 0 0
47 0 0 0
48 0 0 0
117 0 0 0
118 0 0 0
119 0 0 0
120 0 0 0
189 0 0 0
190 0 0 0
191 0 0 0
192 0 0 0
261 0 0 0
262 0 0 0
263 0 0 0
264 0 0 0
53 0 0 0
54 0 0 0
55 0 0 0
56 0 0 0
61 0 0 0
63 0 0 0
125 0 0 0
126 0 0 0
127 0 0 0
128 0 0 0
133 0 0 0
135 0 0 0
197 0 0 0
198 0 0 0
199 0 0 0
200 0 0 0
205 0 0 0
207 0 0 0
269 0 0 0
270 0 0 0
271 0 0 0
272 0 0 0
277 0 0 0
279 0 0 0
62 0 0 0
64 0 0 0
69 0 0 0
70 0 0 0
71 0 0 0
72 0 0 0
134 0 0 0
136 0 0 0
141 0 0 0
142 0 0 0
143 0 0 0
144 0 0 0
206 0 0 0
208 0 0 0
213 0 0 0
214 0 0 0
215 0 0 0
216 0 0 0
278 0 0 0
280 0 0 0
285 0 0 0
286 0 0 0
287 0 0 0
288 0 0 0
