LAMMPS data file via write_data, version 29 Aug 2024, timestep = 7, units = metal

288 atoms
1 atom types

0 11.317147 xlo xhi
0 29.763582 ylo yhi
0 11.317147 zlo zhi

Masses

1 55.8

Atoms # atomic

1 1 0 0 0 0 0 0
2 1 1.414643375 1.414643557616 1.414643375 0 0 0
3 1 0 0 2.82928675 0 0 0
4 1 1.414643375 1.414643557616 4.243930125 0 0 0
9 1 0 2.82928660596 0 0 0 0
10 1 1.4146433749999996 4.249715816713723 1.4146433750000031 0 0 0
11 1 0 2.82928660596 2.82928675 0 0 0
12 1 1.414643375000001 4.249715816713715 4.243930125000001 0 0 0
73 1 2.82928675 0 0 0 0 0
74 1 4.243930125 1.414643557616 1.414643375 0 0 0
75 1 2.82928675 0 2.82928675 0 0 0
76 1 4.243930125 1.414643557616 4.243930125 0 0 0
81 1 2.82928675 2.82928660596 0 0 0 0
82 1 4.243930124999999 4.249715816713722 1.414643375000002 0 0 0
83 1 2.82928675 2.82928660596 2.82928675 0 0 0
84 1 4.243930125000001 4.249715816713718 4.243930124999997 0 0 0
145 1 5.6585735 0 0 0 0 0
146 1 7.073216875 1.414643557616 1.414643375 0 0 0
147 1 5.6585735 0 2.82928675 0 0 0
148 1 7.073216875 1.414643557616 4.243930125 0 0 0
153 1 5.6585735 2.82928660596 0 0 0 0
154 1 7.073216874999999 4.2497158167137155 1.414643375000004 0 0 0
155 1 5.6585735 2.82928660596 2.82928675 0 0 0
156 1 7.073216875000001 4.24971581671371 4.243930125000002 0 0 0
217 1 8.48786025 0 0 0 0 0
218 1 9.902503625 1.414643557616 1.414643375 0 0 0
219 1 8.48786025 0 2.82928675 0 0 0
220 1 9.902503625 1.414643557616 4.243930125 0 0 0
225 1 8.48786025 2.82928660596 0 0 0 0
226 1 9.902503625000003 4.249715816713724 1.4146433750000067 0 0 0
227 1 8.48786025 2.82928660596 2.82928675 0 0 0
228 1 9.902503625 4.249715816713718 4.243930125 0 0 0
17 1 11.317146999999993 5.673413149665168 1.003196913643801e-14 -1 0 0
18 1 1.4146433750000007 7.100240488393552 1.4146433750000031 0 0 0
19 1 11.317146999999995 5.67341314966517 2.829286749999993 -1 0 0
20 1 1.414643375000004 7.100240488393565 4.243930125000004 0 0 0
25 1 4.804193608165871e-15 8.524700298378825 11.317146999999997 0 0 -1
27 1 4.179988577035142e-15 8.524700298378821 2.829286750000009 0 0 0
89 1 2.829286750000003 5.673413149665172 8.738714044801412e-15 0 0 0
90 1 4.2439301249999986 7.100240488393539 1.4146433750000034 0 0 0
91 1 2.829286750000008 5.673413149665171 2.829286749999995 0 0 0
92 1 4.243930125000001 7.100240488393556 4.243930124999999 0 0 0
97 1 2.829286749999995 8.524700298378821 11.317146999999995 0 0 -1
99 1 2.8292867499999943 8.524700298378818 2.82928675000001 0 0 0
161 1 5.6585735 5.6734131496651745 6.44169071788272e-15 0 0 0
162 1 7.073216875000001 7.100240488393549 1.4146433749999998 0 0 0
163 1 5.658573499999993 5.673413149665173 2.8292867499999983 0 0 0
164 1 7.073216874999999 7.100240488393565 4.243930125000004 0 0 0
169 1 5.658573500000009 8.52470029837882 11.317146999999995 0 0 -1
171 1 5.658573500000002 8.524700298378814 2.8292867500000134 0 0 0
233 1 8.487860250000004 5.673413149665172 1.3772373442569973e-14 0 0 0
234 1 9.902503624999998 7.100240488393541 1.4146433750000038 0 0 0
235 1 8.487860250000004 5.673413149665172 2.829286749999998 0 0 0
236 1 9.902503624999998 7.100240488393558 4.243930125 0 0 0
241 1 8.487860249999994 8.524700298378823 11.317146999999999 0 0 -1
243 1 8.487860249999999 8.52470029837882 2.8292867500000107 0 0 0
26 1 1.414643374999996 9.942374044380355 1.4146433750000018 0 0 0
28 1 1.4146433749999965 9.942374044380347 4.243930125000004 0 0 0
33 1 2.3391801792306763e-15 11.376453425633374 3.4487514936101667e-15 0 0 0
34 1 1.4146433749999963 12.77702607081653 1.4146433750000045 0 0 0
35 1 11.317146999999997 11.37645342563337 2.8292867499999965 -1 0 0
36 1 1.4146433750000005 12.777026070816538 4.243930124999997 0 0 0
98 1 4.2439301249999986 9.94237404438036 1.4146433750000011 0 0 0
100 1 4.243930125000003 9.942374044380355 4.243930125000003 0 0 0
105 1 2.8292867500000027 11.37645342563337 4.1160851109373035e-15 0 0 0
106 1 4.243930125 12.777026070816527 1.4146433750000045 0 0 0
107 1 2.829286750000001 11.376453425633368 2.82928675 0 0 0
108 1 4.243930124999997 12.777026070816529 4.243930124999993 0 0 0
170 1 7.073216875 9.942374044380356 1.4146433749999963 0 0 0
172 1 7.0732168749999955 9.942374044380347 4.243930125000005 0 0 0
177 1 5.6585735 11.37645342563337 3.915388979582643e-15 0 0 0
178 1 7.0732168749999955 12.777026070816522 1.4146433750000078 0 0 0
179 1 5.658573499999999 11.376453425633365 2.8292867499999987 0 0 0
180 1 7.073216875000003 12.777026070816532 4.2439301249999914 0 0 0
242 1 9.902503625000001 9.94237404438036 1.4146433750000007 0 0 0
244 1 9.902503625 9.942374044380351 4.243930125 0 0 0
249 1 8.487860249999999 11.376453425633372 7.664944572005616e-15 0 0 0
250 1 9.902503625000003 12.77702607081653 1.4146433749999974 0 0 0
251 1 8.487860250000002 11.376453425633365 2.8292867499999974 0 0 0
252 1 9.902503625000001 12.77702607081653 4.243930125000004 0 0 0
41 1 11.317146999999999 18.399792966111427 11.317146999999999 -1 0 -1
42 1 1.414643375000002 19.80111648172991 1.4146433749999932 0 0 0
43 1 4.4402750520619536e-15 18.399792966111427 2.829286750000002 0 0 0
44 1 1.414643375000002 19.801116481729906 4.243930125 0 0 0
113 1 2.8292867500000027 18.399792966111427 8.845897364279435e-15 0 0 0
114 1 4.243930124999997 19.801116481729913 1.4146433750000003 0 0 0
115 1 2.8292867499999934 18.39979296611143 2.8292867499999916 0 0 0
116 1 4.243930125000001 19.801116481729906 4.243930125 0 0 0
185 1 5.658573499999998 18.39979296611143 7.050596059639905e-15 0 0 0
186 1 7.073216874999998 19.801116481729913 1.4146433749999967 0 0 0
187 1 5.658573500000005 18.399792966111427 2.82928675 0 0 0
188 1 7.073216874999999 19.801116481729906 4.243930125000005 0 0 0
257 1 8.48786025 18.399792966111427 9.196273559405568e-15 0 0 0
258 1 9.902503625 19.801116481729913 1.4146433749999994 0 0 0
259 1 8.487860249999992 18.399792966111427 2.8292867499999965 0 0 0
260 1 9.902503624999998 19.801116481729903 4.243930124999997 0 0 0
49 1 11.317146999999997 21.236261522472663 0 -1 0 0
50 1 1.4146433750000023 22.655396516248402 1.414643375000005 0 0 0
51 1 11.317146999999995 21.236261522472674 2.8292867499999974 -1 0 0
52 1 1.4146433750000023 22.655396516248416 4.243930124999993 0 0 0
57 1 1.040476189995747e-16 24.07994589389874 11.317146999999997 0 0 -1
59 1 11.317146999999999 24.07994589389873 2.8292867500000014 -1 0 0
121 1 2.8292867499999987 21.236261522472663 6.449781876438897e-15 0 0 0
122 1 4.243930124999997 22.655396516248402 1.4146433750000105 0 0 0
123 1 2.829286750000003 21.236261522472674 2.8292867499999925 0 0 0
124 1 4.2439301250000065 22.655396516248405 4.24393012499999 0 0 0
129 1 2.829286749999996 24.079945893898735 11.317146999999997 0 0 -1
131 1 2.8292867500000005 24.079945893898728 2.8292867500000036 0 0 0
193 1 5.6585735 21.236261522472667 7.900226309879932e-16 0 0 0
194 1 7.073216874999998 22.655396516248405 1.4146433750000067 0 0 0
195 1 5.658573499999994 21.236261522472677 2.8292867499999974 0 0 0
196 1 7.073216874999992 22.655396516248413 4.243930124999996 0 0 0
201 1 5.658573500000005 24.079945893898728 11.317146999999993 0 0 -1
203 1 5.658573500000003 24.079945893898724 2.8292867500000067 0 0 0
265 1 8.487860250000002 21.23626152247266 1.4189386551753847e-15 0 0 0
266 1 9.902503625000005 22.655396516248402 1.4146433750000096 0 0 0
267 1 8.487860250000004 21.23626152247267 2.8292867499999947 0 0 0
268 1 9.902503625 22.655396516248413 4.24393012499999 0 0 0
273 1 8.487860249999997 24.079945893898735 11.317146999999993 0 0 -1
275 1 8.48786025 24.07994589389873 2.8292867500000054 0 0 0
58 1 1.4146433749999998 25.4996157313605 1.4146433749999994 0 0 0
60 1 1.4146433750000031 25.499615731360503 4.243930125000001 0 0 0
65 1 0 26.93429539404 0 0 0 0
66 1 1.414643375 28.348937423841 1.414643375 0 0 0
67 1 0 26.93429539404 2.82928675 0 0 0
68 1 1.414643375 28.348937423841 4.243930125 0 0 0
130 1 4.243930124999997 25.499615731360507 1.4146433750000025 0 0 0
132 1 4.243930124999999 25.499615731360503 4.243930125000003 0 0 0
137 1 2.82928675 26.93429539404 0 0 0 0
138 1 4.243930125 28.348937423841 1.414643375 0 0 0
139 1 2.82928675 26.93429539404 2.82928675 0 0 0
140 1 4.243930125 28.348937423841 4.243930125 0 0 0
202 1 7.073216875000005 25.499615731360503 1.4146433749999952 0 0 0
204 1 7.073216875000001 25.499615731360493 4.243930125000004 0 0 0
209 1 5.6585735 26.93429539404 0 0 0 0
210 1 7.073216875 28.348937423841 1.414643375 0 0 0
211 1 5.6585735 26.93429539404 2.82928675 0 0 0
212 1 7.073216875 28.348937423841 4.243930125 0 0 0
274 1 9.902503624999996 25.4996157313605 1.414643375 0 0 0
276 1 9.902503625 25.499615731360496 4.243930125000003 0 0 0
281 1 8.48786025 26.93429539404 0 0 0 0
282 1 9.902503625 28.348937423841 1.414643375 0 0 0
283 1 8.48786025 26.93429539404 2.82928675 0 0 0
284 1 9.902503625 28.348937423841 4.243930125 0 0 0
5 1 0 0 5.6585735 0 0 0
6 1 1.414643375 1.414643557616 7.073216875 0 0 0
7 1 0 0 8.48786025 0 0 0
8 1 1.414643375 1.414643557616 9.902503625 0 0 0
13 1 0 2.82928660596 5.6585735 0 0 0
14 1 1.4146433750000016 4.249715816713719 7.073216875000002 0 0 0
15 1 0 2.82928660596 8.48786025 0 0 0
16 1 1.414643375000003 4.249715816713709 9.902503625000001 0 0 0
77 1 2.82928675 0 5.6585735 0 0 0
78 1 4.243930125 1.414643557616 7.073216875 0 0 0
79 1 2.82928675 0 8.48786025 0 0 0
80 1 4.243930125 1.414643557616 9.902503625 0 0 0
85 1 2.82928675 2.82928660596 5.6585735 0 0 0
86 1 4.243930124999999 4.2497158167137234 7.073216875000003 0 0 0
87 1 2.82928675 2.82928660596 8.48786025 0 0 0
88 1 4.243930125000001 4.2497158167137155 9.902503624999998 0 0 0
149 1 5.6585735 0 5.6585735 0 0 0
150 1 7.073216875 1.414643557616 7.073216875 0 0 0
151 1 5.6585735 0 8.48786025 0 0 0
152 1 7.073216875 1.414643557616 9.902503625 0 0 0
157 1 5.6585735 2.82928660596 5.6585735 0 0 0
158 1 7.073216874999998 4.249715816713718 7.073216875000001 0 0 0
159 1 5.6585735 2.82928660596 8.48786025 0 0 0
160 1 7.073216875 4.2497158167137075 9.902503624999998 0 0 0
221 1 8.48786025 0 5.6585735 0 0 0
222 1 9.902503625 1.414643557616 7.073216875 0 0 0
223 1 8.48786025 0 8.48786025 0 0 0
224 1 9.902503625 1.414643557616 9.902503625 0 0 0
229 1 8.48786025 2.82928660596 5.6585735 0 0 0
230 1 9.902503625000001 4.2497158167137234 7.073216875000002 0 0 0
231 1 8.48786025 2.82928660596 8.48786025 0 0 0
232 1 9.902503625000001 4.249715816713714 9.902503625 0 0 0
21 1 11.317146999999999 5.673413149665167 5.65857350000001 -1 0 0
22 1 1.4146433750000027 7.100240488393551 7.073216875000004 0 0 0
23 1 11.317146999999997 5.673413149665176 8.487860249999994 -1 0 0
24 1 1.4146433750000003 7.100240488393562 9.902503624999996 0 0 0
29 1 7.096420687344696e-15 8.524700298378821 5.658573499999995 0 0 0
31 1 1.6481712074130982e-15 8.52470029837882 8.487860250000008 0 0 0
93 1 2.829286749999999 5.67341314966517 5.65857350000001 0 0 0
94 1 4.243930125000001 7.100240488393539 7.073216875000011 0 0 0
95 1 2.829286750000006 5.6734131496651745 8.487860249999994 0 0 0
96 1 4.243930125000003 7.100240488393553 9.902503624999994 0 0 0
101 1 2.8292867499999903 8.524700298378821 5.658573499999996 0 0 0
103 1 2.8292867499999987 8.524700298378816 8.487860250000006 0 0 0
165 1 5.6585735 5.673413149665174 5.65857350000001 0 0 0
166 1 7.073216874999999 7.100240488393549 7.073216875000011 0 0 0
167 1 5.658573499999995 5.673413149665179 8.487860249999994 0 0 0
168 1 7.073216874999998 7.100240488393564 9.902503624999996 0 0 0
173 1 5.658573500000006 8.524700298378818 5.658573499999993 0 0 0
175 1 5.658573500000004 8.524700298378814 8.487860250000008 0 0 0
237 1 8.48786025 5.67341314966517 5.658573500000008 0 0 0
238 1 9.902503625 7.100240488393544 7.07321687500001 0 0 0
239 1 8.487860250000004 5.673413149665174 8.487860249999994 0 0 0
240 1 9.902503625 7.100240488393559 9.902503624999996 0 0 0
245 1 8.487860249999994 8.52470029837882 5.658573499999993 0 0 0
247 1 8.487860249999997 8.52470029837882 8.487860250000008 0 0 0
30 1 1.4146433750000003 9.942374044380358 7.073216874999998 0 0 0
32 1 1.4146433750000007 9.94237404438035 9.902503625000003 0 0 0
37 1 1.561706667429838e-15 11.37645342563337 5.658573500000003 0 0 0
38 1 1.4146433749999983 12.777026070816532 7.073216874999996 0 0 0
39 1 11.317146999999997 11.376453425633374 8.487860250000002 -1 0 0
40 1 1.414643375000009 12.777026070816534 9.902503625 0 0 0
102 1 4.243930125000001 9.942374044380365 7.073216875 0 0 0
104 1 4.243930125000004 9.942374044380356 9.902503625 0 0 0
109 1 2.8292867499999996 11.37645342563337 5.658573500000005 0 0 0
110 1 4.243930125000001 12.77702607081653 7.073216874999994 0 0 0
111 1 2.829286750000002 11.376453425633374 8.487860249999995 0 0 0
112 1 4.243930124999998 12.77702607081653 9.902503625000003 0 0 0
174 1 7.073216874999999 9.942374044380356 7.073216875000001 0 0 0
176 1 7.073216874999998 9.942374044380353 9.902503625 0 0 0
181 1 5.658573499999999 11.376453425633372 5.6585735 0 0 0
182 1 7.073216874999997 12.777026070816532 7.073216875000002 0 0 0
183 1 5.658573499999996 11.376453425633372 8.487860249999997 0 0 0
184 1 7.073216875000005 12.777026070816532 9.902503625 0 0 0
246 1 9.902503625 9.942374044380363 7.073216875000002 0 0 0
248 1 9.902503625 9.942374044380356 9.902503625000001 0 0 0
253 1 8.48786025 11.376453425633372 5.658573500000004 0 0 0
254 1 9.902503625000007 12.777026070816532 7.0732168749999955 0 0 0
255 1 8.487860250000006 11.376453425633374 8.487860249999997 0 0 0
256 1 9.902503624999994 12.777026070816532 9.902503625000005 0 0 0
45 1 3.1891954400703197e-15 18.399792966111427 5.658573499999992 0 0 0
46 1 1.414643375 19.80111648172991 7.073216874999996 0 0 0
47 1 1.8673091049950603e-15 18.399792966111427 8.487860250000006 0 0 0
48 1 1.414643375000001 19.801116481729903 9.902503625000005 0 0 0
117 1 2.8292867500000014 18.399792966111423 5.658573499999996 0 0 0
118 1 4.243930125 19.80111648172991 7.073216874999999 0 0 0
119 1 2.829286750000002 18.399792966111423 8.487860249999995 0 0 0
120 1 4.243930125000001 19.801116481729906 9.902503625000005 0 0 0
189 1 5.658573500000004 18.399792966111427 5.6585735 0 0 0
190 1 7.073216875000003 19.801116481729906 7.073216874999999 0 0 0
191 1 5.658573500000004 18.399792966111427 8.487860250000002 0 0 0
192 1 7.073216875 19.801116481729906 9.902503625000007 0 0 0
261 1 8.487860249999995 18.399792966111427 5.6585734999999975 0 0 0
262 1 9.902503625 19.801116481729906 7.073216875000002 0 0 0
263 1 8.487860249999994 18.399792966111427 8.487860249999999 0 0 0
264 1 9.902503624999998 19.801116481729906 9.902503625 0 0 0
53 1 0 21.23626152247266 5.658573500000006 0 0 0
54 1 1.4146433750000051 22.655396516248405 7.073216875 0 0 0
55 1 11.317146999999997 21.236261522472667 8.487860249999997 -1 0 0
56 1 1.414643375000001 22.65539651624841 9.902503624999998 0 0 0
61 1 2.6078062784488454e-15 24.07994589389874 5.658573499999999 0 0 0
63 1 11.317146999999999 24.07994589389873 8.487860250000004 -1 0 0
125 1 2.8292867499999996 21.236261522472663 5.658573500000006 0 0 0
126 1 4.2439301249999986 22.655396516248402 7.073216875000005 0 0 0
127 1 2.829286750000004 21.23626152247267 8.487860249999999 0 0 0
128 1 4.243930125000001 22.65539651624841 9.902503624999994 0 0 0
133 1 2.82928674999999 24.07994589389874 5.6585735 0 0 0
135 1 2.8292867500000023 24.07994589389873 8.487860250000002 0 0 0
197 1 5.658573500000002 21.236261522472663 5.658573500000001 0 0 0
198 1 7.073216875 22.655396516248405 7.073216875 0 0 0
199 1 5.658573499999998 21.23626152247267 8.487860250000002 0 0 0
200 1 7.073216874999993 22.655396516248413 9.902503625 0 0 0
205 1 5.6585735000000055 24.07994589389874 5.658573499999996 0 0 0
207 1 5.658573500000003 24.079945893898728 8.48786025000001 0 0 0
269 1 8.487860249999999 21.23626152247266 5.658573500000006 0 0 0
270 1 9.902503625000001 22.655396516248402 7.073216875000004 0 0 0
271 1 8.487860250000002 21.236261522472667 8.487860249999997 0 0 0
272 1 9.902503625000005 22.65539651624841 9.902503624999996 0 0 0
277 1 8.487860249999997 24.07994589389874 5.658573499999998 0 0 0
279 1 8.487860249999999 24.07994589389873 8.487860250000002 0 0 0
62 1 1.4146433750000027 25.4996157313605 7.073216874999996 0 0 0
64 1 1.4146433750000016 25.4996157313605 9.902503625000003 0 0 0
69 1 0 26.93429539404 5.6585735 0 0 0
70 1 1.414643375 28.348937423841 7.073216875 0 0 0
71 1 0 26.93429539404 8.48786025 0 0 0
72 1 1.414643375 28.348937423841 9.902503625 0 0 0
134 1 4.243930125000002 25.499615731360507 7.073216874999998 0 0 0
136 1 4.243930125000001 25.4996157313605 9.902503624999998 0 0 0
141 1 2.82928675 26.93429539404 5.6585735 0 0 0
142 1 4.243930125 28.348937423841 7.073216875 0 0 0
143 1 2.82928675 26.93429539404 8.48786025 0 0 0
144 1 4.243930125 28.348937423841 9.902503625 0 0 0
206 1 7.073216874999999 25.4996157313605 7.073216874999999 0 0 0
208 1 7.073216875 25.499615731360496 9.902503625000003 0 0 0
213 1 5.6585735 26.93429539404 5.6585735 0 0 0
214 1 7.073216875 28.348937423841 7.073216875 0 0 0
215 1 5.6585735 26.93429539404 8.48786025 0 0 0
216 1 7.073216875 28.348937423841 9.902503625 0 0 0
278 1 9.902503625000001 25.4996157313605 7.073216874999996 0 0 0
280 1 9.902503624999998 25.499615731360496 9.902503625000003 0 0 0
285 1 8.48786025 26.93429539404 5.6585735 0 0 0
286 1 9.902503625 28.348937423841 7.073216875 0 0 0
287 1 8.48786025 26.93429539404 8.48786025 0 0 0
288 1 9.902503625 28.348937423841 9.902503625 0 0 0

Velocities

1 0 0 0
2 0 0 0
3 0 0 0
4 0 0 0
9 0 0 0
10 0 0 0
11 0 0 0
12 0 0 0
73 0 0 0
74 0 0 0
75 0 0 0
76 0 0 0
81 0 0 0
82 0 0 0
83 0 0 0
84 0 0 0
145 0 0 0
146 0 0 0
147 0 0 0
148 0 0 0
153 0 0 0
154 0 0 0
155 0 0 0
156 0 0 0
217 0 0 0
218 0 0 0
219 0 0 0
220 0 0 0
225 0 0 0
226 0 0 0
227 0 0 0
228 0 0 0
17 0 0 0
18 0 0 0
19 0 0 0
20 0 0 0
25 0 0 0
27 0 0 0
89 0 0 0
90 0 0 0
91 0 0 0
92 0 0 0
97 0 0 0
99 0 0 0
161 0 0 0
162 0 0 0
163 0 0 0
164 0 0 0
169 0 0 0
171 0 0 0
233 0 0 0
234 0 0 0
235 0 0 0
236 0 0 0
241 0 0 0
243 0 0 0
26 0 0 0
28 0 0 0
33 0 0 0
34 0 0 0
35 0 0 0
36 0 0 0
98 0 0 0
100 0 0 0
105 0 0 0
106 0 0 0
107 0 0 0
108 0 0 0
170 0 0 0
172 0 0 0
177 0 0 0
178 0 0 0
179 0 0 0
180 0 0 0
242 0 0 0
244 0 0 0
249 0 0 0
250 0 0 0
251 0 0 0
252 0 0 0
41 0 0 0
42 0 0 0
43 0 0 0
44 0 0 0
113 0 0 0
114 0 0 0
115 0 0 0
116 0 0 0
185 0 0 0
186 0 0 0
187 0 0 0
188 0 0 0
257 0 0 0
258 0 0 0
259 0 0 0
260 0 0 0
49 0 0 0
50 0 0 0
51 0 0 0
52 0 0 0
57 0 0 0
59 0 0 0
121 0 0 0
122 0 0 0
123 0 0 0
124 0 0 0
129 0 0 0
131 0 0 0
193 0 0 0
194 0 0 0
195 0 0 0
196 0 0 0
201 0 0 0
203 0 0 0
265 0 0 0
266 0 0 0
267 0 0 0
268 0 0 0
273 0 0 0
275 0 0 0
58 0 0 0
60 0 0 0
65 0 0 0
66 0 0 0
67 0 0 0
68 0 0 0
130 0 0 0
132 0 0 0
137 0 0 0
138 0 0 0
139 0 0 0
140 0 0 0
202 0 0 0
204 0 0 0
209 0 0 0
210 0 0 0
211 0 0 0
212 0 0 0
274 0 0 0
276 0 0 0
281 0 0 0
282 0 0 0
283 0 0 0
284 0 0 0
5 0 0 0
6 0 0 0
7 0 0 0
8 0 0 0
13 0 0 0
14 0 0 0
15 0 0 0
16 0 0 0
77 0 0 0
78 0 0 0
79 0 0 0
80 0 0 0
85 0 0 0
86 0 0 0
87 0 0 0
88 0 0 0
149 0 0 0
150 0 0 0
151 0 0 0
152 0 0 0
157 0 0 0
158 0 0 0
159 0 0 0
160 0 0 0
221 0 0 0
222 0 0 0
223 0 0 0
224 0 0 0
229 0 0 0
230 0 0 0
231 0 0 0
232 0 0 0
21 0 0 0
22 0 0 0
23 0 0 0
24 0 0 0
29 0 0 0
31 0 0 0
93 0 0 0
94 0 0 0
95 0 0 0
96 0 0 0
101 0 0 0
103 0 0 0
165 0 0 0
166 0 0 0
167 0 0 0
168 0 0 0
173 0 0 0
175 0 0 0
237 0 0 0
238 0 0 0
239 0 0 0
240 0 0 0
245 0 0 0
247 0 0 0
30 0 0 0
32 0 0 0
37 0 0 0
38 0 0 0
39 0 0 0
40 0 0 0
102 0 0 0
104 0 0 0
109 0 0 0
110 0 0 0
111 0 0 0
112 0 0 0
174 0 0 0
176 0 0 0
181 0 0 0
182 0 0 0
183 0 0 0
184 0 0 0
246 0 0 0
248 0 0 0
253 0 0 0
254 0 0 0
255 0 0 0
256 0 0 0
45 0 0 0
46 0 0 0
47 0 0 0
48 0 0 0
117 0 0 0
118 0 0 0
119 0 0 0
120 0 0 0
189 0 0 0
190 0 0 0
191 0 0 0
192 0 0 0
261 0 0 0
262 0 0 0
263 0 0 0
264 0 0 0
53 0 0 0
54 0 0 0
55 0 0 0
56 0 0 0
61 0 0 0
63 0 0 0
125 0 0 0
126 0 0 0
127 0 0 0
128 0 0 0
133 0 0 0
135 0 0 0
197 0 0 0
198 0 0 0
199 0 0 0
200 0 0 0
205 0 0 0
207 0 0 0
269 0 0 0
270 0 0 0
271 0 0 0
272 0 0 0
277 0 0 0
279 0 0 0
62 0 0 0
64 0 0 0
69 0 0 0
70 0 0 0
71 0 0 0
72 0 0 0
134 0 0 0
136 0 0 0
141 0 0 0
142 0 0 0
143 0 0 0
144 0 0 0
206 0 0 0
208 0 0 0
213 0 0 0
214 0 0 0
215 0 0 0
216 0 0 0
278 0 0 0
280 0 0 0
285 0 0 0
286 0 0 0
287 0 0 0
288 0 0 0
