LAMMPS data file via write_data, version 29 Aug 2024, timestep = 11, units = metal

288 atoms
1 atom types

0 11.317147 xlo xhi
0 26.163582 ylo yhi
0 11.317147 zlo zhi

Masses

1 55.8

Atoms # atomic

1 1 0 0 0 0 0 0
2 1 1.414643375 1.414643557616 1.414643375 0 0 0
3 1 0 0 2.82928675 0 0 0
4 1 1.414643375 1.414643557616 4.243930125 0 0 0
9 1 0 2.82928660596 0 0 0 0
10 1 1.414643374999998 4.2903249493631375 1.414643374999998 0 0 0
11 1 0 2.82928660596 2.82928675 0 0 0
12 1 1.414643375 4.29032494936313 4.243930124999999 0 0 0
73 1 2.82928675 0 0 0 0 0
74 1 4.243930125 1.414643557616 1.414643375 0 0 0
75 1 2.82928675 0 2.82928675 0 0 0
76 1 4.243930125 1.414643557616 4.243930125 0 0 0
81 1 2.82928675 2.82928660596 0 0 0 0
82 1 4.2439301249999986 4.290324949363137 1.4146433749999983 0 0 0
83 1 2.82928675 2.82928660596 2.82928675 0 0 0
84 1 4.243930125000001 4.2903249493631375 4.243930124999998 0 0 0
145 1 5.6585735 0 0 0 0 0
146 1 7.073216875 1.414643557616 1.414643375 0 0 0
147 1 5.6585735 0 2.82928675 0 0 0
148 1 7.073216875 1.414643557616 4.243930125 0 0 0
153 1 5.6585735 2.82928660596 0 0 0 0
154 1 7.073216875000001 4.29032494936314 1.4146433750000007 0 0 0
155 1 5.6585735 2.82928660596 2.82928675 0 0 0
156 1 7.073216875000001 4.290324949363133 4.243930125000002 0 0 0
217 1 8.48786025 0 0 0 0 0
218 1 9.902503625 1.414643557616 1.414643375 0 0 0
219 1 8.48786025 0 2.82928675 0 0 0
220 1 9.902503625 1.414643557616 4.243930125 0 0 0
225 1 8.48786025 2.82928660596 0 0 0 0
226 1 9.902503625000003 4.29032494936313 1.414643375000003 0 0 0
227 1 8.48786025 2.82928660596 2.82928675 0 0 0
228 1 9.902503624999998 4.290324949363131 4.243930125000003 0 0 0
17 1 5.2997163988301815e-15 5.748449153721315 1.601264185321211e-16 0 0 0
18 1 1.4146433749999934 7.2118322659852625 1.4146433750000007 0 0 0
19 1 2.8272491664733868e-15 5.748449153721313 2.829286749999995 0 0 0
20 1 1.4146433750000003 7.211832265985273 4.243930125 0 0 0
25 1 8.857168245758653e-16 8.674623801552148 11.317146999999997 0 0 -1
27 1 1.0446074177048371e-15 8.674623801552155 2.8292867500000005 0 0 0
89 1 2.8292867500000005 5.7484491537213085 9.615243020359568e-16 0 0 0
90 1 4.243930125000002 7.211832265985266 1.4146433749999991 0 0 0
91 1 2.8292867500000005 5.748449153721315 2.8292867499999983 0 0 0
92 1 4.243930124999992 7.211832265985277 4.243930124999998 0 0 0
97 1 2.8292867500000036 8.674623801552148 11.317146999999991 0 0 -1
99 1 2.8292867500000014 8.674623801552151 2.8292867500000067 0 0 0
161 1 5.658573500000001 5.748449153721316 4.4823415779156535e-15 0 0 0
162 1 7.073216874999996 7.211832265985265 1.414643374999995 0 0 0
163 1 5.6585735 5.748449153721313 2.829286749999989 0 0 0
164 1 7.073216875000008 7.211832265985272 4.243930125000001 0 0 0
169 1 5.658573499999997 8.674623801552155 11.31714699999999 0 0 -1
171 1 5.658573499999996 8.674623801552164 2.829286749999998 0 0 0
233 1 8.487860249999994 5.748449153721312 11.317146999999999 0 0 -1
234 1 9.902503625000003 7.211832265985267 1.414643375000001 0 0 0
235 1 8.487860249999995 5.74844915372131 2.8292867500000014 0 0 0
236 1 9.902503624999996 7.211832265985274 4.243930125000005 0 0 0
241 1 8.487860249999999 8.674623801552151 11.317146999999988 0 0 -1
243 1 8.487860250000002 8.674623801552158 2.8292867500000076 0 0 0
26 1 1.414643374999994 10.135807376372503 1.4146433750000087 0 0 0
28 1 1.4146433750000007 10.135807376372497 4.243930124999999 0 0 0
33 1 0 11.597172261474979 11.317146999999999 0 0 -1
34 1 1.4146433749999952 13.060691197277244 1.4146433749999952 0 0 0
35 1 0 11.597172261474968 2.829286749999995 0 0 0
36 1 1.4146433749999954 13.060691197277242 4.243930125000008 0 0 0
98 1 4.243930125000007 10.135807376372501 1.4146433750000063 0 0 0
100 1 4.243930124999999 10.135807376372496 4.243930124999996 0 0 0
105 1 2.829286750000004 11.597172261474975 11.317146999999993 0 0 -1
106 1 4.2439301250000065 13.060691197277244 1.4146433749999965 0 0 0
107 1 2.829286749999998 11.59717226147496 2.8292867499999983 0 0 0
108 1 4.243930125000003 13.060691197277245 4.243930125000007 0 0 0
170 1 7.073216874999994 10.135807376372506 1.4146433750000056 0 0 0
172 1 7.073216874999999 10.1358073763725 4.243930124999996 0 0 0
177 1 5.6585734999999975 11.597172261474979 7.821503202312258e-16 0 0 0
178 1 7.073216874999996 13.06069119727724 1.4146433749999967 0 0 0
179 1 5.658573500000002 11.597172261474965 2.8292867499999943 0 0 0
180 1 7.073216875 13.060691197277245 4.243930125000004 0 0 0
242 1 9.902503625 10.135807376372506 1.4146433750000096 0 0 0
244 1 9.902503624999992 10.135807376372496 4.243930124999997 0 0 0
249 1 8.487860250000002 11.597172261474979 11.317146999999999 0 0 -1
250 1 9.902503625000001 13.060691197277242 1.4146433749999934 0 0 0
251 1 8.48786025 11.597172261474967 2.82928675 0 0 0
252 1 9.902503625 13.060691197277245 4.243930125000001 0 0 0
41 1 11.317146999999999 14.523491010793782 4.744394953267553e-15 -1 0 0
42 1 1.4146433750000016 15.988159414862928 1.4146433749999963 0 0 0
43 1 11.317146999999999 14.523491010793778 2.829286749999998 -1 0 0
44 1 1.4146433749999994 15.988159414862926 4.243930125000001 0 0 0
113 1 2.829286750000003 14.523491010793785 3.6139442933475815e-15 0 0 0
114 1 4.243930124999998 15.98815941486293 1.414643374999997 0 0 0
115 1 2.8292867500000005 14.523491010793784 2.8292867499999943 0 0 0
116 1 4.243930125000006 15.988159414862926 4.243930125000001 0 0 0
185 1 5.6585734999999975 14.523491010793775 0 0 0 0
186 1 7.073216875000009 15.988159414862926 1.414643375 0 0 0
187 1 5.658573499999999 14.523491010793778 2.8292867499999983 0 0 0
188 1 7.073216875000002 15.988159414862931 4.243930124999999 0 0 0
257 1 8.48786025 14.523491010793785 1.6827103729300132e-15 0 0 0
258 1 9.902503624999998 15.988159414862931 1.4146433749999985 0 0 0
259 1 8.48786025 14.523491010793785 2.829286750000001 0 0 0
260 1 9.902503624999996 15.988159414862933 4.243930124999999 0 0 0
49 1 4.2211964668796945e-15 17.453963844189502 3.7242375047067634e-15 0 0 0
50 1 1.4146433750000027 18.92212383577988 1.4146433750000023 0 0 0
51 1 9.110137743569197e-16 17.453963844189513 2.829286749999997 0 0 0
52 1 1.4146433750000036 18.92212383577989 4.243930124999996 0 0 0
57 1 6.5998899990049995e-15 20.390399544575725 11.317146999999997 0 0 -1
59 1 4.145428718781259e-15 20.39039954457572 2.8292867500000023 0 0 0
121 1 2.82928675 17.453963844189506 3.2141896898191248e-15 0 0 0
122 1 4.2439301249999986 18.92212383577988 1.4146433750000007 0 0 0
123 1 2.829286749999994 17.45396384418951 2.8292867499999965 0 0 0
124 1 4.243930125000002 18.92212383577989 4.243930125 0 0 0
129 1 2.8292867500000014 20.390399544575722 7.059673622692187e-16 0 0 0
131 1 2.829286749999999 20.390399544575715 2.8292867500000036 0 0 0
193 1 5.658573499999995 17.453963844189502 11.317146999999999 0 0 -1
194 1 7.073216875 18.922123835779892 1.4146433750000063 0 0 0
195 1 5.658573500000001 17.45396384418951 2.8292867500000045 0 0 0
196 1 7.0732168750000035 18.92212383577989 4.243930124999994 0 0 0
201 1 5.658573500000003 20.39039954457572 11.317146999999997 0 0 -1
203 1 5.658573500000003 20.39039954457572 2.8292867500000045 0 0 0
265 1 8.487860250000004 17.453963844189502 2.5661447570779013e-15 0 0 0
266 1 9.902503625000001 18.92212383577988 1.4146433750000085 0 0 0
267 1 8.487860250000006 17.45396384418951 2.8292867500000023 0 0 0
268 1 9.902503624999992 18.922123835779885 4.243930124999994 0 0 0
273 1 8.487860249999995 20.390399544575725 11.317146999999995 0 0 -1
275 1 8.48786025 20.390399544575715 2.829286750000006 0 0 0
58 1 1.4146433749999987 21.847789236593503 1.4146433749999967 0 0 0
60 1 1.414643375000002 21.8477892365935 4.243930125000002 0 0 0
65 1 0 23.33429539404 0 0 0 0
66 1 1.414643375 24.748937423841 1.414643375 0 0 0
67 1 0 23.33429539404 2.82928675 0 0 0
68 1 1.414643375 24.748937423841 4.243930125 0 0 0
130 1 4.2439301249999986 21.847789236593503 1.4146433749999974 0 0 0
132 1 4.243930124999996 21.847789236593503 4.243930125000001 0 0 0
137 1 2.82928675 23.33429539404 0 0 0 0
138 1 4.243930125 24.748937423841 1.414643375 0 0 0
139 1 2.82928675 23.33429539404 2.82928675 0 0 0
140 1 4.243930125 24.748937423841 4.243930125 0 0 0
202 1 7.0732168750000035 21.847789236593503 1.4146433750000014 0 0 0
204 1 7.073216874999997 21.847789236593503 4.2439301249999986 0 0 0
209 1 5.6585735 23.33429539404 0 0 0 0
210 1 7.073216875 24.748937423841 1.414643375 0 0 0
211 1 5.6585735 23.33429539404 2.82928675 0 0 0
212 1 7.073216875 24.748937423841 4.243930125 0 0 0
274 1 9.902503625000001 21.847789236593503 1.414643375000002 0 0 0
276 1 9.902503624999996 21.847789236593503 4.243930125000004 0 0 0
281 1 8.48786025 23.33429539404 0 0 0 0
282 1 9.902503625 24.748937423841 1.414643375 0 0 0
283 1 8.48786025 23.33429539404 2.82928675 0 0 0
284 1 9.902503625 24.748937423841 4.243930125 0 0 0
5 1 0 0 5.6585735 0 0 0
6 1 1.414643375 1.414643557616 7.073216875 0 0 0
7 1 0 0 8.48786025 0 0 0
8 1 1.414643375 1.414643557616 9.902503625 0 0 0
13 1 0 2.82928660596 5.6585735 0 0 0
14 1 1.4146433749999994 4.2903249493631375 7.073216875000004 0 0 0
15 1 0 2.82928660596 8.48786025 0 0 0
16 1 1.414643375000002 4.290324949363134 9.902503625000003 0 0 0
77 1 2.82928675 0 5.6585735 0 0 0
78 1 4.243930125 1.414643557616 7.073216875 0 0 0
79 1 2.82928675 0 8.48786025 0 0 0
80 1 4.243930125 1.414643557616 9.902503625 0 0 0
85 1 2.82928675 2.82928660596 5.6585735 0 0 0
86 1 4.243930125000006 4.290324949363143 7.073216875000002 0 0 0
87 1 2.82928675 2.82928660596 8.48786025 0 0 0
88 1 4.243930124999995 4.290324949363133 9.902503625000005 0 0 0
149 1 5.6585735 0 5.6585735 0 0 0
150 1 7.073216875 1.414643557616 7.073216875 0 0 0
151 1 5.6585735 0 8.48786025 0 0 0
152 1 7.073216875 1.414643557616 9.902503625 0 0 0
157 1 5.6585735 2.82928660596 5.6585735 0 0 0
158 1 7.073216874999998 4.2903249493631375 7.0732168750000035 0 0 0
159 1 5.6585735 2.82928660596 8.48786025 0 0 0
160 1 7.073216875000005 4.290324949363136 9.902503625 0 0 0
221 1 8.48786025 0 5.6585735 0 0 0
222 1 9.902503625 1.414643557616 7.073216875 0 0 0
223 1 8.48786025 0 8.48786025 0 0 0
224 1 9.902503625 1.414643557616 9.902503625 0 0 0
229 1 8.48786025 2.82928660596 5.6585735 0 0 0
230 1 9.902503625000003 4.29032494936313 7.073216875000001 0 0 0
231 1 8.48786025 2.82928660596 8.48786025 0 0 0
232 1 9.902503625 4.2903249493631295 9.902503625 0 0 0
21 1 1.4471322892627725e-15 5.748449153721313 5.658573500000004 0 0 0
22 1 1.4146433749999994 7.211832265985268 7.073216875 0 0 0
23 1 4.482699724363393e-15 5.748449153721312 8.487860249999999 0 0 0
24 1 1.414643374999993 7.211832265985273 9.902503625000001 0 0 0
29 1 3.833743610781284e-15 8.674623801552151 5.658573499999998 0 0 0
31 1 5.552418320373465e-16 8.674623801552155 8.487860250000004 0 0 0
93 1 2.82928675 5.748449153721315 5.6585735000000055 0 0 0
94 1 4.243930125 7.211832265985265 7.073216874999999 0 0 0
95 1 2.8292867499999996 5.7484491537213085 8.487860249999995 0 0 0
96 1 4.243930125000002 7.211832265985276 9.902503625000007 0 0 0
101 1 2.82928675 8.674623801552151 5.658573499999996 0 0 0
103 1 2.829286749999996 8.674623801552157 8.487860250000004 0 0 0
165 1 5.658573500000002 5.748449153721309 5.658573500000008 0 0 0
166 1 7.073216875 7.211832265985264 7.073216875000003 0 0 0
167 1 5.658573499999999 5.74844915372131 8.487860249999995 0 0 0
168 1 7.073216875000002 7.211832265985272 9.902503625000007 0 0 0
173 1 5.658573499999996 8.67462380155216 5.658573500000001 0 0 0
175 1 5.658573500000001 8.674623801552157 8.48786025 0 0 0
237 1 8.487860249999999 5.748449153721312 5.658573499999999 0 0 0
238 1 9.902503625000001 7.211832265985266 7.073216874999997 0 0 0
239 1 8.487860249999995 5.74844915372131 8.48786025 0 0 0
240 1 9.902503625 7.211832265985272 9.902503625000001 0 0 0
245 1 8.487860250000002 8.674623801552151 5.658573499999991 0 0 0
247 1 8.48786025 8.67462380155216 8.487860250000002 0 0 0
30 1 1.4146433750000007 10.135807376372501 7.073216875000005 0 0 0
32 1 1.4146433750000023 10.135807376372503 9.90250362499999 0 0 0
37 1 6.947684606187205e-15 11.597172261474974 5.658573500000001 0 0 0
38 1 1.4146433749999998 13.060691197277242 7.073216874999998 0 0 0
39 1 7.213208658502543e-15 11.597172261474972 8.487860250000006 0 0 0
40 1 1.4146433749999925 13.060691197277237 9.902503624999992 0 0 0
102 1 4.243930125000004 10.135807376372503 7.073216875 0 0 0
104 1 4.243930125000005 10.135807376372496 9.902503625000005 0 0 0
109 1 2.829286749999996 11.597172261474972 5.6585735000000055 0 0 0
110 1 4.243930125000006 13.060691197277244 7.073216874999994 0 0 0
111 1 2.82928674999999 11.597172261474972 8.487860250000006 0 0 0
112 1 4.243930125000004 13.06069119727724 9.902503625000005 0 0 0
174 1 7.073216874999997 10.135807376372505 7.073216875000004 0 0 0
176 1 7.073216874999997 10.135807376372497 9.902503624999996 0 0 0
181 1 5.6585735 11.597172261474977 5.6585735000000055 0 0 0
182 1 7.073216874999999 13.060691197277242 7.073216874999997 0 0 0
183 1 5.6585735000000055 11.597172261474972 8.487860249999999 0 0 0
184 1 7.073216874999994 13.06069119727724 9.902503625000001 0 0 0
246 1 9.902503624999998 10.135807376372503 7.073216875000006 0 0 0
248 1 9.902503624999998 10.135807376372501 9.902503624999992 0 0 0
253 1 8.487860249999999 11.597172261474977 5.658573500000003 0 0 0
254 1 9.902503624999998 13.060691197277245 7.073216875000003 0 0 0
255 1 8.487860250000006 11.597172261474968 8.48786025 0 0 0
256 1 9.902503625000003 13.060691197277238 9.902503625000001 0 0 0
45 1 5.2291127986870205e-15 14.523491010793778 5.658573499999999 0 0 0
46 1 1.4146433750000016 15.98815941486293 7.073216874999997 0 0 0
47 1 6.114733878361875e-16 14.523491010793776 8.487860250000008 0 0 0
48 1 1.414643375000004 15.988159414862928 9.902503625 0 0 0
117 1 2.829286749999998 14.52349101079378 5.658573500000002 0 0 0
118 1 4.243930124999999 15.988159414862928 7.073216874999994 0 0 0
119 1 2.8292867499999974 14.523491010793782 8.487860249999995 0 0 0
120 1 4.243930124999999 15.98815941486293 9.902503625000008 0 0 0
189 1 5.658573500000002 14.523491010793776 5.658573500000004 0 0 0
190 1 7.073216875000007 15.98815941486293 7.0732168749999955 0 0 0
191 1 5.658573500000002 14.523491010793776 8.48786025 0 0 0
192 1 7.073216875 15.988159414862926 9.902503625000007 0 0 0
261 1 8.487860249999999 14.52349101079378 5.658573500000006 0 0 0
262 1 9.902503624999992 15.988159414862935 7.0732168749999955 0 0 0
263 1 8.487860250000008 14.523491010793785 8.487860249999997 0 0 0
264 1 9.902503624999994 15.988159414862926 9.902503625000001 0 0 0
53 1 11.317146999999999 17.453963844189506 5.658573500000004 -1 0 0
54 1 1.4146433750000027 18.92212383577988 7.0732168750000035 0 0 0
55 1 11.317146999999997 17.453963844189513 8.487860249999997 -1 0 0
56 1 1.414643374999998 18.922123835779885 9.902503624999994 0 0 0
61 1 4.01648927916925e-15 20.390399544575722 5.6585735 0 0 0
63 1 6.3874295206585496e-15 20.390399544575722 8.487860250000008 0 0 0
125 1 2.82928675 17.453963844189513 5.658573500000004 0 0 0
126 1 4.243930125000003 18.922123835779885 7.073216875000005 0 0 0
127 1 2.8292867499999983 17.453963844189513 8.487860249999999 0 0 0
128 1 4.243930125000002 18.922123835779885 9.902503624999996 0 0 0
133 1 2.8292867499999965 20.390399544575722 5.6585734999999975 0 0 0
135 1 2.829286750000001 20.390399544575715 8.48786025 0 0 0
197 1 5.6585735 17.453963844189506 5.658573500000004 0 0 0
198 1 7.073216875000002 18.922123835779885 7.073216875000007 0 0 0
199 1 5.658573499999998 17.453963844189513 8.48786025 0 0 0
200 1 7.073216874999996 18.92212383577989 9.902503624999996 0 0 0
205 1 5.658573499999997 20.390399544575722 5.6585734999999975 0 0 0
207 1 5.658573500000002 20.390399544575715 8.48786025 0 0 0
269 1 8.48786025000001 17.453963844189502 5.658573500000006 0 0 0
270 1 9.902503624999996 18.922123835779878 7.073216875000001 0 0 0
271 1 8.487860250000008 17.45396384418951 8.487860249999997 0 0 0
272 1 9.902503625 18.922123835779885 9.902503624999992 0 0 0
277 1 8.487860250000004 20.39039954457572 5.6585734999999975 0 0 0
279 1 8.487860249999995 20.390399544575715 8.487860250000002 0 0 0
62 1 1.4146433749999983 21.847789236593506 7.073216874999999 0 0 0
64 1 1.4146433749999938 21.847789236593506 9.902503625000003 0 0 0
69 1 0 23.33429539404 5.6585735 0 0 0
70 1 1.414643375 24.748937423841 7.073216875 0 0 0
71 1 0 23.33429539404 8.48786025 0 0 0
72 1 1.414643375 24.748937423841 9.902503625 0 0 0
134 1 4.243930125000002 21.847789236593503 7.073216875000005 0 0 0
136 1 4.243930125000003 21.847789236593503 9.902503625000003 0 0 0
141 1 2.82928675 23.33429539404 5.6585735 0 0 0
142 1 4.243930125 24.748937423841 7.073216875 0 0 0
143 1 2.82928675 23.33429539404 8.48786025 0 0 0
144 1 4.243930125 24.748937423841 9.902503625 0 0 0
206 1 7.073216874999998 21.847789236593506 7.073216875000004 0 0 0
208 1 7.073216874999998 21.847789236593503 9.902503625 0 0 0
213 1 5.6585735 23.33429539404 5.6585735 0 0 0
214 1 7.073216875 24.748937423841 7.073216875 0 0 0
215 1 5.6585735 23.33429539404 8.48786025 0 0 0
216 1 7.073216875 24.748937423841 9.902503625 0 0 0
278 1 9.902503624999998 21.84778923659351 7.0732168750000035 0 0 0
280 1 9.902503625000001 21.847789236593506 9.902503625 0 0 0
285 1 8.48786025 23.33429539404 5.6585735 0 0 0
286 1 9.902503625 24.748937423841 7.073216875 0 0 0
287 1 8.48786025 23.33429539404 8.48786025 0 0 0
288 1 9.902503625 24.748937423841 9.902503625 0 0 0

Velocities

1 0 0 0
2 0 0 0
3 0 0 0
4 0 0 0
9 0 0 0
10 0 0 0
11 0 0 0
12 0 0 0
73 0 0 0
74 0 0 0
75 0 0 0
76 0 0 0
81 0 0 0
82 0 0 0
83 0 0 0
84 0 0 0
145 0 0 0
146 0 0 0
147 0 0 0
148 0 0 0
153 0 0 0
154 0 0 0
155 0 0 0
156 0 0 0
217 0 0 0
218 0 0 0
219 0 0 0
220 0 0 0
225 0 0 0
226 0 0 0
227 0 0 0
228 0 0 0
17 0 0 0
18 0 0 0
19 0 0 0
20 0 0 0
25 0 0 0
27 0 0 0
89 0 0 0
90 0 0 0
91 0 0 0
92 0 0 0
97 0 0 0
99 0 0 0
161 0 0 0
162 0 0 0
163 0 0 0
164 0 0 0
169 0 0 0
171 0 0 0
233 0 0 0
234 0 0 0
235 0 0 0
236 0 0 0
241 0 0 0
243 0 0 0
26 0 0 0
28 0 0 0
33 0 0 0
34 0 0 0
35 0 0 0
36 0 0 0
98 0 0 0
100 0 0 0
105 0 0 0
106 0 0 0
107 0 0 0
108 0 0 0
170 0 0 0
172 0 0 0
177 0 0 0
178 0 0 0
179 0 0 0
180 0 0 0
242 0 0 0
244 0 0 0
249 0 0 0
250 0 0 0
251 0 0 0
252 0 0 0
41 0 0 0
42 0 0 0
43 0 0 0
44 0 0 0
113 0 0 0
114 0 0 0
115 0 0 0
116 0 0 0
185 0 0 0
186 0 0 0
187 0 0 0
188 0 0 0
257 0 0 0
258 0 0 0
259 0 0 0
260 0 0 0
49 0 0 0
50 0 0 0
51 0 0 0
52 0 0 0
57 0 0 0
59 0 0 0
121 0 0 0
122 0 0 0
123 0 0 0
124 0 0 0
129 0 0 0
131 0 0 0
193 0 0 0
194 0 0 0
195 0 0 0
196 0 0 0
201 0 0 0
203 0 0 0
265 0 0 0
266 0 0 0
267 0 0 0
268 0 0 0
273 0 0 0
275 0 0 0
58 0 0 0
60 0 0 0
65 0 0 0
66 0 0 0
67 0 0 0
68 0 0 0
130 0 0 0
132 0 0 0
137 0 0 0
138 0 0 0
139 0 0 0
140 0 0 0
202 0 0 0
204 0 0 0
209 0 0 0
210 0 0 0
211 0 0 0
212 0 0 0
274 0 0 0
276 0 0 0
281 0 0 0
282 0 0 0
283 0 0 0
284 0 0 0
5 0 0 0
6 0 0 0
7 0 0 0
8 0 0 0
13 0 0 0
14 0 0 0
15 0 0 0
16 0 0 0
77 0 0 0
78 0 0 0
79 0 0 0
80 0 0 0
85 0 0 0
86 0 0 0
87 0 0 0
88 0 0 0
149 0 0 0
150 0 0 0
151 0 0 0
152 0 0 0
157 0 0 0
158 0 0 0
159 0 0 0
160 0 0 0
221 0 0 0
222 0 0 0
223 0 0 0
224 0 0 0
229 0 0 0
230 0 0 0
231 0 0 0
232 0 0 0
21 0 0 0
22 0 0 0
23 0 0 0
24 0 0 0
29 0 0 0
31 0 0 0
93 0 0 0
94 0 0 0
95 0 0 0
96 0 0 0
101 0 0 0
103 0 0 0
165 0 0 0
166 0 0 0
167 0 0 0
168 0 0 0
173 0 0 0
175 0 0 0
237 0 0 0
238 0 0 0
239 0 0 0
240 0 0 0
245 0 0 0
247 0 0 0
30 0 0 0
32 0 0 0
37 0 0 0
38 0 0 0
39 0 0 0
40 0 0 0
102 0 0 0
104 0 0 0
109 0 0 0
110 0 0 0
111 0 0 0
112 0 0 0
174 0 0 0
176 0 0 0
181 0 0 0
182 0 0 0
183 0 0 0
184 0 0 0
246 0 0 0
248 0 0 0
253 0 0 0
254 0 0 0
255 0 0 0
256 0 0 0
45 0 0 0
46 0 0 0
47 0 0 0
48 0 0 0
117 0 0 0
118 0 0 0
119 0 0 0
120 0 0 0
189 0 0 0
190 0 0 0
191 0 0 0
192 0 0 0
261 0 0 0
262 0 0 0
263 0 0 0
264 0 0 0
53 0 0 0
54 0 0 0
55 0 0 0
56 0 0 0
61 0 0 0
63 0 0 0
125 0 0 0
126 0 0 0
127 0 0 0
128 0 0 0
133 0 0 0
135 0 0 0
197 0 0 0
198 0 0 0
199 0 0 0
200 0 0 0
205 0 0 0
207 0 0 0
269 0 0 0
270 0 0 0
271 0 0 0
272 0 0 0
277 0 0 0
279 0 0 0
62 0 0 0
64 0 0 0
69 0 0 0
70 0 0 0
71 0 0 0
72 0 0 0
134 0 0 0
136 0 0 0
141 0 0 0
142 0 0 0
143 0 0 0
144 0 0 0
206 0 0 0
208 0 0 0
213 0 0 0
214 0 0 0
215 0 0 0
216 0 0 0
278 0 0 0
280 0 0 0
285 0 0 0
286 0 0 0
287 0 0 0
288 0 0 0
