LAMMPS data file via write_data, version 29 Aug 2024, timestep = 16, units = metal

240 atoms
1 atom types

0 13.98284573 xlo xhi
0 26.21841258 ylo yhi
0 8.07299975 zlo zhi

Masses

1 55.8

Atoms # atomic

14 1 1.104123392353 0.978309288037 6.019465798333 0 0 0
20 1 2.26936048991 1.511660948117 4.001215860833 0 0 0
119 1 2.269360533149918 4.134371615334715 8.037715735833322 0 0 0
162 1 4.599834824853 3.240284549262 8.037715735833 0 0 0
164 1 3.434597727296 2.374575787602 1.982965923333 0 0 0
165 1 1.104123392353 3.240284549262 1.982965923333 0 0 0
171 1 4.599834824853 0.978309288037 4.001215860833 0 0 0
207 1 4.599834824853 3.240284549262 4.001215860833 0 0 0
209 1 3.434597727296 2.374575787602 6.019465798333 0 0 0
210 1 1.104123392353 3.240284549262 6.019465798333 0 0 0
211 1 2.2693605331498174 4.13437161533451 4.001215860833481 0 0 0
227 1 4.599834824853 0.978309288037 8.037715735833 0 0 0
230 1 1.104123392353 0.978309288037 1.982965923333 0 0 0
231 1 2.26936048991 1.511660948117 8.037715735833 0 0 0
16 1 8.095546257353 3.240284549262 6.019465798333 0 0 0
21 1 9.26078339815009 4.134371615334388 4.001215860833747 0 0 0
25 1 6.930309159796 2.374575787602 4.001215860833 0 0 0
124 1 8.095546257353 3.240284549262 1.982965923333 0 0 0
125 1 9.260783398149982 4.1343716153346355 8.037715735833476 0 0 0
159 1 8.095546257353 0.978309288037 6.019465798333 0 0 0
160 1 9.26078335491 1.511660948117 4.001215860833 0 0 0
163 1 5.765071965650105 4.134371615334818 1.9829659233324979 0 0 0
168 1 8.095546257353 0.978309288037 1.982965923333 0 0 0
169 1 9.26078335491 1.511660948117 8.037715735833 0 0 0
172 1 5.76507192241 1.511660948117 6.019465798333 0 0 0
206 1 6.930309159796 2.374575787602 8.037715735833 0 0 0
208 1 5.765071965650014 4.134371615334527 6.019465798332278 0 0 0
228 1 5.76507192241 1.511660948117 1.982965923333 0 0 0
1 1 11.591257689853 3.240284549262 4.001215860833 0 0 0
7 1 12.756494830649803 4.134371615334333 6.019465798332707 0 0 0
11 1 10.426020592296 2.374575787602 6.019465798333 0 0 0
33 1 11.591257689853 0.978309288037 4.001215860833 0 0 0
36 1 12.75649478741 1.511660948117 6.019465798333 0 0 0
120 1 13.921732024796 2.374575787602 8.037715735833 0 0 0
121 1 11.591257689853 3.240284549262 8.037715735833 0 0 0
122 1 12.756494830649816 4.13437161533472 1.9829659233327677 0 0 0
123 1 10.426020592296 2.374575787602 1.982965923333 0 0 0
166 1 12.75649478741 1.511660948117 1.982965923333 0 0 0
213 1 13.921732024796 2.374575787602 4.001215860833 0 0 0
233 1 11.591257689853 0.978309288037 8.037715735833 0 0 0
12 1 3.4345977002357144 5.005226133560519 1.982965923332008 0 0 0
19 1 1.10412337038014 5.842202401809288 1.9829659233325558 0 0 0
28 1 2.269360569587937 6.703999357846577 8.037715735833451 0 0 0
31 1 4.599834802880765 5.8422024018092324 8.037715735833851 0 0 0
72 1 4.599834802881519 5.842202401809031 4.001215860834437 0 0 0
74 1 3.434597700235419 5.005226133561125 6.019465798332423 0 0 0
75 1 1.1041233703812405 5.842202401809063 6.019465798332269 0 0 0
76 1 2.2693605695870755 6.703999357846952 4.001215860833795 0 0 0
106 1 4.599834848576545 8.434131323431282 4.001215860833606 0 0 0
108 1 3.434597656520793 7.556998541865864 6.019465798332555 0 0 0
109 1 1.1041234160761149 8.434131323431219 6.019465798331771 0 0 0
201 1 4.599834848576602 8.434131323431137 8.0377157358333 0 0 0
203 1 3.434597656520109 7.556998541866508 1.9829659233323131 0 0 0
204 1 1.1041234160764004 8.434131323431012 1.9829659233321553 0 0 0
5 1 5.76507200208861 6.703999357846585 1.9829659233317154 0 0 0
69 1 8.095546235379967 5.842202401809239 1.9829659233313437 0 0 0
70 1 9.260783434588479 6.703999357846662 8.037715735834603 0 0 0
71 1 6.930309132735621 5.005226133560901 8.037715735834492 0 0 0
73 1 5.765072002087171 6.703999357846876 6.019465798331573 0 0 0
81 1 8.095546235381232 5.84220240180891 6.019465798331472 0 0 0
130 1 8.095546281076793 8.434131323431117 1.9829659233319952 0 0 0
132 1 6.930309089019844 7.556998541866076 8.037715735834626 0 0 0
188 1 8.095546281076812 8.434131323431407 6.019465798331777 0 0 0
190 1 6.930309089020092 7.55699854186592 4.001215860833966 0 0 0
199 1 9.260783434588308 6.703999357847165 4.001215860834965 0 0 0
200 1 6.93030913273513 5.0052261335610435 4.00121586083385 0 0 0
32 1 13.921731997735977 5.005226133560871 8.037715735833784 0 0 0
35 1 11.591257667880175 5.842202401809114 8.03771573583436 0 0 0
38 1 12.756494867088655 6.7039993578465396 1.9829659233313892 0 0 0
68 1 10.426020565236135 5.005226133560803 1.9829659233317225 0 0 0
77 1 13.921731997735932 5.0052261335610835 4.001215860833146 0 0 0
78 1 11.591257667880416 5.8422024018090095 4.00121586083462 0 0 0
79 1 12.756494867087582 6.703999357847032 6.019465798331487 0 0 0
80 1 10.426020565235577 5.005226133561273 6.019465798331967 0 0 0
111 1 13.921731954020926 7.556998541865921 4.001215860834166 0 0 0
112 1 11.591257713576047 8.434131323431266 4.001215860834517 0 0 0
126 1 13.921731954020172 7.556998541866192 8.037715735834535 0 0 0
127 1 11.59125771357665 8.434131323431231 8.037715735834173 0 0 0
129 1 10.426020521519694 7.556998541866219 1.982965923331472 0 0 0
187 1 10.426020521520195 7.55699854186577 6.019465798331251 0 0 0
51 1 4.599834824725479 11.046855388560619 4.001215860833172 0 0 0
53 1 3.4345976892578123 10.158237977958626 6.019465798332654 0 0 0
54 1 1.1041233922254567 11.046855388560683 6.01946579833272 0 0 0
64 1 3.434597681383905 12.981774137080203 6.019465798332984 0 0 0
110 1 2.269360524749144 9.286028375772032 4.001215860833519 0 0 0
152 1 3.4345976892576515 10.158237977958505 1.9829659233325998 0 0 0
153 1 1.1041233922255331 11.046855388560642 1.9829659233326913 0 0 0
154 1 2.26936053739563 11.78332156610542 8.03771573583314 0 0 0
177 1 2.26936053739564 11.783321566105565 4.001215860833153 0 0 0
191 1 4.599834824725418 11.046855388560616 8.03771573583315 0 0 0
195 1 3.4345976813839076 12.981774137080215 1.9829659233329944 0 0 0
205 1 2.2693605247492763 9.2860283757723 8.03771573583386 0 0 0
3 1 6.930309121757645 10.158237977958674 4.001215860833229 0 0 0
40 1 6.930309113883914 12.981774137080206 8.03771573583298 0 0 0
48 1 8.095546257225559 11.04685538856065 1.9829659233328354 0 0 0
49 1 9.260783402395525 11.78332156610545 8.037715735833023 0 0 0
50 1 6.93030912175774 10.15823797795864 8.037715735833158 0 0 0
52 1 5.76507196989562 11.783321566105586 6.019465798332948 0 0 0
98 1 6.930309113883919 12.981774137080201 4.001215860832991 0 0 0
107 1 5.7650719572488685 9.286028375772052 6.01946579833273 0 0 0
131 1 9.260783389749077 9.286028375772208 8.037715735833899 0 0 0
184 1 8.095546257225513 11.046855388560624 6.019465798332958 0 0 0
185 1 9.260783402395559 11.783321566105641 4.001215860833034 0 0 0
189 1 9.260783389749232 9.286028375771817 4.001215860833759 0 0 0
192 1 5.765071969895604 11.783321566105585 1.9829659233329664 0 0 0
202 1 5.76507195724897 9.286028375772096 1.9829659233326389 0 0 0
34 1 10.426020546383931 12.981774137080215 1.9829659233330137 0 0 0
66 1 13.921731978883908 12.981774137080208 4.001215860833006 0 0 0
96 1 10.426020546383922 12.981774137080208 6.019465798333001 0 0 0
128 1 12.75649482224935 9.286028375772338 1.9829659233318517 0 0 0
155 1 13.921731986757454 10.158237977958505 8.037715735833544 0 0 0
156 1 11.591257689725618 11.046855388560612 8.037715735833292 0 0 0
157 1 12.75649483489555 11.783321566105412 1.9829659233329018 0 0 0
158 1 10.426020554257553 10.15823797795856 1.9829659233324917 0 0 0
179 1 13.9217319867576 10.158237977958605 4.001215860833585 0 0 0
181 1 11.591257689725605 11.046855388560669 4.001215860833249 0 0 0
182 1 12.756494834895607 11.783321566105446 6.0194657983328606 0 0 0
183 1 10.426020554257587 10.158237977958597 6.019465798332511 0 0 0
186 1 12.756494822249339 9.286028375772126 6.019465798332225 0 0 0
197 1 13.921731978883903 12.981774137080214 8.037715735833014 0 0 0
63 1 2.2693605370392764 14.193218874027519 4.0012158608329615 0 0 0
65 1 4.599834825435928 14.927744690776652 4.001215860832853 0 0 0
67 1 1.1041233929358527 14.92774469077667 6.019465798332986 0 0 0
89 1 2.269360534666443 16.694229271138763 8.037715735832588 0 0 0
90 1 3.434597682532205 15.819239691216374 1.9829659233329986 0 0 0
174 1 2.2693605346655157 16.694229271138767 4.001215860832735 0 0 0
175 1 3.4345976825320776 15.819239691216412 6.019465798333422 0 0 0
194 1 2.26936053703943 14.193218874027616 8.037715735832949 0 0 0
196 1 4.59983482543557 14.927744690776652 8.037715735832908 0 0 0
198 1 1.1041233929358079 14.927744690776622 1.9829659233331274 0 0 0
24 1 9.260783402039248 14.193218874027558 8.037715735833002 0 0 0
41 1 8.095546257935831 14.92774469077667 1.9829659233329135 0 0 0
43 1 9.260783399666291 16.694229271138838 4.001215860833182 0 0 0
46 1 6.930309115031938 15.819239691216394 4.001215860832975 0 0 0
62 1 5.765071969539345 14.193218874027451 6.019465798333018 0 0 0
88 1 5.76507196716578 16.694229271138862 1.9829659233333712 0 0 0
95 1 9.260783402039337 14.193218874027476 4.001215860833009 0 0 0
99 1 8.095546257935835 14.92774469077668 6.019465798333074 0 0 0
101 1 9.260783399665415 16.694229271138905 8.037715735833249 0 0 0
104 1 6.930309115032516 15.819239691216355 8.037715735832997 0 0 0
173 1 5.765071967165892 16.694229271138955 6.019465798332728 0 0 0
193 1 5.7650719695393295 14.193218874027496 1.9829659233331094 0 0 0
9 1 12.756494834539312 14.193218874027563 1.9829659233329473 0 0 0
39 1 11.591257690435969 14.927744690776633 8.037715735833048 0 0 0
42 1 12.756494832166059 16.694229271138802 6.019465798333226 0 0 0
44 1 10.426020547532103 15.81923969121635 6.0194657983327575 0 0 0
92 1 13.921731980031854 15.81923969121639 8.03771573583294 0 0 0
94 1 12.756494834539282 14.193218874027584 6.0194657983330035 0 0 0
97 1 11.591257690435762 14.927744690776654 4.001215860833086 0 0 0
100 1 12.756494832166078 16.69422927113887 1.9829659233328896 0 0 0
102 1 10.426020547532051 15.81923969121638 1.9829659233329955 0 0 0
178 1 13.921731980032293 15.819239691216447 4.0012158608329385 0 0 0
91 1 4.599834831605967 17.55007751193378 8.037715735832922 0 0 0
93 1 1.1041233991063573 17.55007751193385 1.982965923333742 0 0 0
114 1 2.2693605470353875 19.2819224547239 8.037715735832808 0 0 0
115 1 3.4345976744339 18.434369742680047 1.9829659233328838 0 0 0
116 1 4.599834820950749 20.16075949878785 8.037715735833425 0 0 0
118 1 1.1041233884511594 20.160759498787808 1.982965923333552 0 0 0
134 1 2.2693605470344065 19.281922454723972 4.001215860832714 0 0 0
135 1 3.4345976744336895 18.434369742679845 6.019465798333481 0 0 0
136 1 4.5998348209518385 20.160759498787673 4.001215860833176 0 0 0
138 1 1.1041233884509356 20.160759498787797 6.019465798333014 0 0 0
176 1 4.5998348316073345 17.55007751193397 4.001215860832852 0 0 0
180 1 1.1041233991065031 17.550077511933843 6.019465798333158 0 0 0
222 1 3.434597687281539 21.001462884978714 1.9829659233325612 0 0 0
224 1 3.4345976872815385 21.00146288497891 6.019465798333011 0 0 0
23 1 6.930309119780864 21.001462884978917 4.001215860833234 0 0 0
47 1 8.095546264106673 17.55007751193383 6.019465798333164 0 0 0
83 1 9.260783412036359 19.28192245472395 4.001215860832954 0 0 0
86 1 6.930309106932508 18.43436974267985 4.001215860833496 0 0 0
87 1 8.095546253450927 20.160759498787773 6.019465798333458 0 0 0
105 1 8.095546264106886 17.550077511933733 1.9829659233322674 0 0 0
113 1 5.765071979534644 19.281922454723876 1.9829659233331154 0 0 0
133 1 5.765071979535163 19.281922454723873 6.019465798332207 0 0 0
147 1 9.260783412034193 19.28192245472379 8.03771573583315 0 0 0
150 1 6.930309106934406 18.434369742680065 8.037715735833165 0 0 0
151 1 8.095546253451426 20.16075949878788 1.9829659233323351 0 0 0
217 1 6.930309119781937 21.001462884978718 8.03771573583302 0 0 0
15 1 10.426020552281727 21.00146288497877 6.019465798332891 0 0 0
45 1 11.591257696606137 17.550077511933882 4.001215860832931 0 0 0
56 1 13.921731984781163 21.00146288497865 8.037715735832652 0 0 0
60 1 10.4260205522814 21.00146288497867 1.9829659233338326 0 0 0
82 1 12.75649484453524 19.28192245472391 6.019465798334042 0 0 0
84 1 10.42602053943342 18.43436974268002 6.019465798332471 0 0 0
85 1 11.591257685949868 20.16075949878775 4.001215860832548 0 0 0
103 1 11.591257696607183 17.550077511933754 8.037715735832986 0 0 0
117 1 13.921731971933088 18.434369742680097 8.037715735832467 0 0 0
137 1 13.921731971934195 18.434369742679824 4.00121586083247 0 0 0
146 1 12.756494844535148 19.281922454723738 1.9829659233330625 0 0 0
148 1 10.42602053943338 18.434369742680083 1.9829659233335193 0 0 0
149 1 11.591257685951819 20.160759498787876 8.03771573583246 0 0 0
226 1 13.921731984782374 21.001462884978896 4.001215860832809 0 0 0
2 1 1.104123392353 22.762058453958 6.019465798333 0 0 0
4 1 3.434597727296 26.11037779161 6.019465798333 0 0 0
13 1 2.26936048991 24.490681807918 8.037715735833 0 0 0
17 1 3.434597727296 23.627767215617 1.982965923333 0 0 0
22 1 4.599834824853 25.024033467998 8.037715735833 0 0 0
30 1 1.104123392353 25.024033467998 1.982965923333 0 0 0
55 1 4.599834824853 22.762058453958 8.037715735833 0 0 0
57 1 1.104123392353 22.762058453958 1.982965923333 0 0 0
139 1 2.26936048991 24.490681807918 4.001215860833 0 0 0
140 1 3.434597727296 23.627767215617 6.019465798333 0 0 0
141 1 4.599834824853 25.024033467998 4.001215860833 0 0 0
143 1 1.104123392353 25.024033467998 6.019465798333 0 0 0
220 1 2.2693605384207993 21.853935184571174 8.03771573583312 0 0 0
223 1 2.2693605384201976 21.853935184571114 4.001215860833104 0 0 0
225 1 4.599834824853 22.762058453958 4.001215860833 0 0 0
229 1 3.434597727296 26.11037779161 1.982965923333 0 0 0
8 1 5.76507192241 24.490681807918 1.982965923333 0 0 0
10 1 9.260783403421016 21.853935184571114 4.001215860832739 0 0 0
27 1 8.095546257353 22.762058453958 6.019465798333 0 0 0
59 1 9.260783403420298 21.853935184571228 8.037715735832881 0 0 0
145 1 9.26078335491 24.490681807918 4.001215860833 0 0 0
161 1 6.930309159796 26.11037779161 4.001215860833 0 0 0
170 1 6.930309159796 26.11037779161 8.037715735833 0 0 0
215 1 6.930309159796 23.627767215617 4.001215860833 0 0 0
216 1 8.095546257353 25.024033467998 6.019465798333 0 0 0
218 1 5.765071970920613 21.853935184571164 1.9829659233330696 0 0 0
219 1 8.095546257353 22.762058453958 1.982965923333 0 0 0
221 1 5.7650719709206655 21.853935184571096 6.01946579833278 0 0 0
235 1 9.26078335491 24.490681807918 8.037715735833 0 0 0
238 1 6.930309159796 23.627767215617 8.037715735833 0 0 0
239 1 8.095546257353 25.024033467998 1.982965923333 0 0 0
240 1 5.76507192241 24.490681807918 6.019465798333 0 0 0
6 1 12.756494835920506 21.853935184571156 6.019465798333373 0 0 0
18 1 11.591257689853 22.762058453958 4.001215860833 0 0 0
26 1 13.921732024796 23.627767215617 8.037715735833 0 0 0
29 1 13.921732024796 26.11037779161 4.001215860833 0 0 0
37 1 10.426020592296 26.11037779161 6.019465798333 0 0 0
58 1 12.75649483592057 21.853935184571313 1.9829659233329349 0 0 0
61 1 11.591257689853 22.762058453958 8.037715735833 0 0 0
142 1 13.921732024796 23.627767215617 4.001215860833 0 0 0
144 1 12.75649478741 24.490681807918 6.019465798333 0 0 0
167 1 10.426020592296 26.11037779161 1.982965923333 0 0 0
212 1 10.426020592296 23.627767215617 6.019465798333 0 0 0
214 1 11.591257689853 25.024033467998 4.001215860833 0 0 0
232 1 13.921732024796 26.11037779161 8.037715735833 0 0 0
234 1 12.75649478741 24.490681807918 1.982965923333 0 0 0
236 1 10.426020592296 23.627767215617 1.982965923333 0 0 0
237 1 11.591257689853 25.024033467998 8.037715735833 0 0 0

Velocities

14 0 0 0
20 0 0 0
119 0 0 0
162 0 0 0
164 0 0 0
165 0 0 0
171 0 0 0
207 0 0 0
209 0 0 0
210 0 0 0
211 0 0 0
227 0 0 0
230 0 0 0
231 0 0 0
16 0 0 0
21 0 0 0
25 0 0 0
124 0 0 0
125 0 0 0
159 0 0 0
160 0 0 0
163 0 0 0
168 0 0 0
169 0 0 0
172 0 0 0
206 0 0 0
208 0 0 0
228 0 0 0
1 0 0 0
7 0 0 0
11 0 0 0
33 0 0 0
36 0 0 0
120 0 0 0
121 0 0 0
122 0 0 0
123 0 0 0
166 0 0 0
213 0 0 0
233 0 0 0
12 0 0 0
19 0 0 0
28 0 0 0
31 0 0 0
72 0 0 0
74 0 0 0
75 0 0 0
76 0 0 0
106 0 0 0
108 0 0 0
109 0 0 0
201 0 0 0
203 0 0 0
204 0 0 0
5 0 0 0
69 0 0 0
70 0 0 0
71 0 0 0
73 0 0 0
81 0 0 0
130 0 0 0
132 0 0 0
188 0 0 0
190 0 0 0
199 0 0 0
200 0 0 0
32 0 0 0
35 0 0 0
38 0 0 0
68 0 0 0
77 0 0 0
78 0 0 0
79 0 0 0
80 0 0 0
111 0 0 0
112 0 0 0
126 0 0 0
127 0 0 0
129 0 0 0
187 0 0 0
51 0 0 0
53 0 0 0
54 0 0 0
64 0 0 0
110 0 0 0
152 0 0 0
153 0 0 0
154 0 0 0
177 0 0 0
191 0 0 0
195 0 0 0
205 0 0 0
3 0 0 0
40 0 0 0
48 0 0 0
49 0 0 0
50 0 0 0
52 0 0 0
98 0 0 0
107 0 0 0
131 0 0 0
184 0 0 0
185 0 0 0
189 0 0 0
192 0 0 0
202 0 0 0
34 0 0 0
66 0 0 0
96 0 0 0
128 0 0 0
155 0 0 0
156 0 0 0
157 0 0 0
158 0 0 0
179 0 0 0
181 0 0 0
182 0 0 0
183 0 0 0
186 0 0 0
197 0 0 0
63 0 0 0
65 0 0 0
67 0 0 0
89 0 0 0
90 0 0 0
174 0 0 0
175 0 0 0
194 0 0 0
196 0 0 0
198 0 0 0
24 0 0 0
41 0 0 0
43 0 0 0
46 0 0 0
62 0 0 0
88 0 0 0
95 0 0 0
99 0 0 0
101 0 0 0
104 0 0 0
173 0 0 0
193 0 0 0
9 0 0 0
39 0 0 0
42 0 0 0
44 0 0 0
92 0 0 0
94 0 0 0
97 0 0 0
100 0 0 0
102 0 0 0
178 0 0 0
91 0 0 0
93 0 0 0
114 0 0 0
115 0 0 0
116 0 0 0
118 0 0 0
134 0 0 0
135 0 0 0
136 0 0 0
138 0 0 0
176 0 0 0
180 0 0 0
222 0 0 0
224 0 0 0
23 0 0 0
47 0 0 0
83 0 0 0
86 0 0 0
87 0 0 0
105 0 0 0
113 0 0 0
133 0 0 0
147 0 0 0
150 0 0 0
151 0 0 0
217 0 0 0
15 0 0 0
45 0 0 0
56 0 0 0
60 0 0 0
82 0 0 0
84 0 0 0
85 0 0 0
103 0 0 0
117 0 0 0
137 0 0 0
146 0 0 0
148 0 0 0
149 0 0 0
226 0 0 0
2 0 0 0
4 0 0 0
13 0 0 0
17 0 0 0
22 0 0 0
30 0 0 0
55 0 0 0
57 0 0 0
139 0 0 0
140 0 0 0
141 0 0 0
143 0 0 0
220 0 0 0
223 0 0 0
225 0 0 0
229 0 0 0
8 0 0 0
10 0 0 0
27 0 0 0
59 0 0 0
145 0 0 0
161 0 0 0
170 0 0 0
215 0 0 0
216 0 0 0
218 0 0 0
219 0 0 0
221 0 0 0
235 0 0 0
238 0 0 0
239 0 0 0
240 0 0 0
6 0 0 0
18 0 0 0
26 0 0 0
29 0 0 0
37 0 0 0
58 0 0 0
61 0 0 0
142 0 0 0
144 0 0 0
167 0 0 0
212 0 0 0
214 0 0 0
232 0 0 0
234 0 0 0
236 0 0 0
237 0 0 0
