LAMMPS data file via write_data, version 29 Aug 2024, timestep = 5, units = metal

240 atoms
1 atom types

0 13.98284573 xlo xhi
0 29.51841258 ylo yhi
0 8.07299975 zlo zhi

Masses

1 55.8

Atoms # atomic

12 1 3.4345976827978055 4.866108589962364 1.982965923332999 0 0 0
14 1 1.104123392353 0.978309288037 6.019465798333 0 0 0
20 1 2.26936048991 1.511660948117 4.001215860833 0 0 0
74 1 3.4345976827978126 4.86610858996236 6.019465798333002 0 0 0
119 1 2.269360539992714 4.034840700403927 8.037715735833 0 0 0
162 1 4.599834824853 3.240284549262 8.037715735833 0 0 0
164 1 3.434597727296 2.374575787602 1.982965923333 0 0 0
165 1 1.104123392353 3.240284549262 1.982965923333 0 0 0
171 1 4.599834824853 0.978309288037 4.001215860833 0 0 0
207 1 4.599834824853 3.240284549262 4.001215860833 0 0 0
209 1 3.434597727296 2.374575787602 6.019465798333 0 0 0
210 1 1.104123392353 3.240284549262 6.019465798333 0 0 0
211 1 2.269360539992716 4.034840700403926 4.001215860832998 0 0 0
227 1 4.599834824853 0.978309288037 8.037715735833 0 0 0
230 1 1.104123392353 0.978309288037 1.982965923333 0 0 0
231 1 2.26936048991 1.511660948117 8.037715735833 0 0 0
16 1 8.095546257353 3.240284549262 6.019465798333 0 0 0
21 1 9.260783404992713 4.034840700403923 4.001215860832999 0 0 0
25 1 6.930309159796 2.374575787602 4.001215860833 0 0 0
71 1 6.930309115297806 4.866108589962362 8.037715735832997 0 0 0
124 1 8.095546257353 3.240284549262 1.982965923333 0 0 0
125 1 9.260783404992713 4.034840700403923 8.037715735833002 0 0 0
159 1 8.095546257353 0.978309288037 6.019465798333 0 0 0
160 1 9.26078335491 1.511660948117 4.001215860833 0 0 0
163 1 5.765071972492715 4.034840700403922 1.9829659233329995 0 0 0
168 1 8.095546257353 0.978309288037 1.982965923333 0 0 0
169 1 9.26078335491 1.511660948117 8.037715735833 0 0 0
172 1 5.76507192241 1.511660948117 6.019465798333 0 0 0
200 1 6.930309115297806 4.866108589962358 4.0012158608330015 0 0 0
206 1 6.930309159796 2.374575787602 8.037715735833 0 0 0
208 1 5.765071972492712 4.034840700403929 6.019465798333 0 0 0
228 1 5.76507192241 1.511660948117 1.982965923333 0 0 0
1 1 11.591257689853 3.240284549262 4.001215860833 0 0 0
7 1 12.756494837492712 4.034840700403927 6.019465798332998 0 0 0
11 1 10.426020592296 2.374575787602 6.019465798333 0 0 0
32 1 13.92173198029781 4.86610858996236 8.037715735833 0 0 0
33 1 11.591257689853 0.978309288037 4.001215860833 0 0 0
36 1 12.75649478741 1.511660948117 6.019465798333 0 0 0
68 1 10.426020547797803 4.866108589962362 1.9829659233329975 0 0 0
77 1 13.921731980297807 4.866108589962363 4.001215860833 0 0 0
80 1 10.426020547797812 4.866108589962361 6.019465798332998 0 0 0
120 1 13.921732024796 2.374575787602 8.037715735833 0 0 0
121 1 11.591257689853 3.240284549262 8.037715735833 0 0 0
122 1 12.756494837492715 4.034840700403922 1.9829659233329988 0 0 0
123 1 10.426020592296 2.374575787602 1.982965923333 0 0 0
166 1 12.75649478741 1.511660948117 1.982965923333 0 0 0
213 1 13.921732024796 2.374575787602 4.001215860833 0 0 0
233 1 11.591257689853 0.978309288037 8.037715735833 0 0 0
19 1 1.1041233935093757 5.669487519010463 1.982965923333 0 0 0
28 1 2.269360536872347 6.482335211401806 8.037715735833 0 0 0
31 1 4.599834826009373 5.669487519010463 8.037715735832997 0 0 0
53 1 3.434597683176789 9.737335308366491 6.019465798333003 0 0 0
72 1 4.599834826009372 5.669487519010464 4.0012158608330015 0 0 0
75 1 1.1041233935093715 5.669487519010469 6.019465798332998 0 0 0
76 1 2.2693605368723415 6.482335211401815 4.001215860833002 0 0 0
106 1 4.599834824752259 8.10953226125979 4.001215860832999 0 0 0
108 1 3.4345976807671823 7.300262675034001 6.019465798332998 0 0 0
109 1 1.104123392252258 8.109532261259785 6.019465798332998 0 0 0
110 1 2.2693605373536045 8.914523255343017 4.001215860832999 0 0 0
152 1 3.4345976831767895 9.737335308366484 1.9829659233329984 0 0 0
201 1 4.599834824752256 8.109532261259792 8.037715735833002 0 0 0
203 1 3.434597680767188 7.300262675034001 1.9829659233329995 0 0 0
204 1 1.1041233922522584 8.10953226125979 1.9829659233330008 0 0 0
205 1 2.269360537353604 8.914523255343022 8.037715735833 0 0 0
3 1 6.930309115676782 9.73733530836648 4.001215860833 0 0 0
5 1 5.765071969372344 6.48233521140181 1.9829659233330004 0 0 0
50 1 6.930309115676788 9.737335308366486 8.037715735832998 0 0 0
69 1 8.095546258509378 5.669487519010463 1.9829659233329993 0 0 0
70 1 9.260783401872342 6.482335211401811 8.037715735833 0 0 0
73 1 5.765071969372344 6.482335211401804 6.019465798333001 0 0 0
81 1 8.09554625850937 5.669487519010463 6.019465798332999 0 0 0
107 1 5.765071969853602 8.914523255343022 6.019465798332998 0 0 0
130 1 8.095546257252263 8.109532261259789 1.9829659233330028 0 0 0
131 1 9.260783402353603 8.914523255343017 8.037715735833002 0 0 0
132 1 6.930309113267188 7.3002626750339985 8.037715735833 0 0 0
188 1 8.09554625725226 8.109532261259787 6.019465798332996 0 0 0
189 1 9.260783402353606 8.914523255343013 4.0012158608330015 0 0 0
190 1 6.93030911326719 7.300262675034007 4.001215860832999 0 0 0
199 1 9.260783401872345 6.482335211401813 4.001215860833 0 0 0
202 1 5.765071969853603 8.914523255343019 1.9829659233330028 0 0 0
35 1 11.591257691009371 5.669487519010465 8.037715735832998 0 0 0
38 1 12.756494834372345 6.48233521140181 1.9829659233330001 0 0 0
78 1 11.591257691009373 5.669487519010465 4.001215860833005 0 0 0
79 1 12.756494834372344 6.482335211401809 6.0194657983330035 0 0 0
111 1 13.92173197826719 7.300262675034003 4.001215860833002 0 0 0
112 1 11.591257689752256 8.109532261259792 4.001215860832999 0 0 0
126 1 13.921731978267184 7.300262675034006 8.037715735832995 0 0 0
127 1 11.591257689752261 8.10953226125979 8.037715735832997 0 0 0
128 1 12.756494834853601 8.91452325534302 1.982965923333002 0 0 0
129 1 10.426020545767177 7.300262675034004 1.9829659233330048 0 0 0
155 1 13.921731980676789 9.737335308366488 8.037715735832998 0 0 0
158 1 10.426020548176789 9.737335308366484 1.9829659233330021 0 0 0
179 1 13.921731980676785 9.737335308366486 4.001215860833001 0 0 0
183 1 10.426020548176785 9.737335308366486 6.0194657983329956 0 0 0
186 1 12.756494834853603 8.914523255343019 6.019465798333 0 0 0
187 1 10.426020545767186 7.300262675034 6.019465798332998 0 0 0
51 1 4.599834828935915 10.645324865440209 4.0012158608330015 0 0 0
54 1 1.1041233964359143 10.645324865440207 6.019465798333004 0 0 0
64 1 3.4345976864158088 12.054493298575364 6.019465798333 0 0 0
153 1 1.1041233964359143 10.64532486544021 1.9829659233329973 0 0 0
154 1 2.269360541903879 11.334952076430625 8.037715735832998 0 0 0
177 1 2.2693605419038807 11.334952076430628 4.0012158608330015 0 0 0
191 1 4.599834828935911 10.645324865440209 8.037715735832998 0 0 0
195 1 3.434597686415808 12.054493298575368 1.9829659233330006 0 0 0
40 1 6.930309118915809 12.054493298575366 8.037715735833 0 0 0
48 1 8.095546261435915 10.645324865440209 1.9829659233329986 0 0 0
49 1 9.260783406903881 11.334952076430627 8.037715735833 0 0 0
52 1 5.765071974403878 11.334952076430623 6.019465798332998 0 0 0
98 1 6.930309118915809 12.054493298575366 4.001215860832999 0 0 0
184 1 8.095546261435912 10.645324865440209 6.019465798333001 0 0 0
185 1 9.260783406903883 11.334952076430627 4.001215860833001 0 0 0
192 1 5.76507197440388 11.334952076430627 1.9829659233330015 0 0 0
34 1 10.426020551415808 12.054493298575366 1.9829659233330013 0 0 0
66 1 13.921731983915807 12.054493298575366 4.0012158608330015 0 0 0
96 1 10.426020551415808 12.054493298575364 6.019465798332999 0 0 0
156 1 11.591257693935914 10.645324865440212 8.037715735833002 0 0 0
157 1 12.756494839403876 11.334952076430628 1.9829659233329975 0 0 0
181 1 11.591257693935914 10.64532486544021 4.001215860833001 0 0 0
182 1 12.75649483940388 11.334952076430628 6.019465798332999 0 0 0
197 1 13.921731983915807 12.054493298575364 8.037715735833002 0 0 0
63 1 2.2693605288066956 18.07291915164605 4.001215860833001 0 0 0
65 1 4.599834817999141 18.79161384529754 4.001215860833 0 0 0
67 1 1.1041233854991375 18.79161384529754 6.019465798333002 0 0 0
90 1 3.4345976745167563 19.479614452358014 1.9829659233329955 0 0 0
175 1 3.4345976745167555 19.479614452358017 6.019465798333002 0 0 0
194 1 2.269360528806697 18.072919151646055 8.037715735832997 0 0 0
196 1 4.599834817999139 18.791613845297544 8.037715735833 0 0 0
198 1 1.104123385499138 18.79161384529754 1.9829659233329993 0 0 0
24 1 9.260783393806696 18.07291915164605 8.037715735833 0 0 0
41 1 8.095546250499137 18.791613845297544 1.982965923332998 0 0 0
46 1 6.930309107016754 19.479614452358017 4.001215860832998 0 0 0
62 1 5.765071961306694 18.072919151646055 6.019465798333003 0 0 0
95 1 9.260783393806697 18.07291915164605 4.001215860832997 0 0 0
99 1 8.09554625049914 18.791613845297537 6.019465798333005 0 0 0
104 1 6.930309107016753 19.479614452358014 8.037715735832998 0 0 0
193 1 5.765071961306695 18.07291915164605 1.9829659233329997 0 0 0
9 1 12.756494826306698 18.072919151646047 1.9829659233330008 0 0 0
39 1 11.591257682999139 18.79161384529754 8.037715735832998 0 0 0
44 1 10.426020539516754 19.479614452358017 6.019465798333001 0 0 0
92 1 13.921731972016754 19.47961445235802 8.037715735832998 0 0 0
94 1 12.756494826306692 18.072919151646047 6.019465798333 0 0 0
97 1 11.59125768299914 18.791613845297544 4.001215860833001 0 0 0
102 1 10.42602053951675 19.479614452358017 1.9829659233330013 0 0 0
178 1 13.921731972016751 19.479614452358017 4.001215860833001 0 0 0
89 1 2.2693605322734527 20.390107440688173 8.037715735833 0 0 0
91 1 4.599834821502929 21.209032716868816 8.037715735832998 0 0 0
93 1 1.1041233890029274 21.209032716868816 1.9829659233329966 0 0 0
114 1 2.2693605360152587 22.826940128562406 8.037715735833002 0 0 0
115 1 3.4345976789054005 22.014048427636887 1.982965923333002 0 0 0
116 1 4.5998348253120716 23.635502821631714 8.037715735832998 0 0 0
118 1 1.1041233928120695 23.635502821631714 1.9829659233330008 0 0 0
134 1 2.2693605360152604 22.82694012856241 4.001215860832998 0 0 0
135 1 3.434597678905402 22.014048427636887 6.019465798333001 0 0 0
136 1 4.599834825312071 23.63550282163171 4.001215860832996 0 0 0
138 1 1.1041233928120664 23.635502821631714 6.019465798332998 0 0 0
174 1 2.2693605322734567 20.390107440688176 4.001215860832998 0 0 0
176 1 4.59983482150293 21.20903271686882 4.001215860832996 0 0 0
180 1 1.104123389002926 21.209032716868816 6.019465798333004 0 0 0
222 1 3.434597682525792 24.45702288543981 1.9829659233330004 0 0 0
224 1 3.4345976825257942 24.45702288543981 6.019465798332999 0 0 0
23 1 6.930309115025789 24.457022885439812 4.001215860832996 0 0 0
43 1 9.260783397273455 20.390107440688176 4.0012158608330015 0 0 0
47 1 8.095546254002931 21.20903271686882 6.019465798333004 0 0 0
83 1 9.26078340101526 22.82694012856241 4.001215860833004 0 0 0
86 1 6.930309111405398 22.01404842763689 4.001215860833002 0 0 0
87 1 8.095546257812067 23.63550282163171 6.0194657983330035 0 0 0
88 1 5.765071964773453 20.390107440688176 1.9829659233330001 0 0 0
101 1 9.260783397273451 20.390107440688183 8.037715735832998 0 0 0
105 1 8.095546254002931 21.209032716868816 1.9829659233329984 0 0 0
113 1 5.765071968515257 22.826940128562413 1.9829659233330017 0 0 0
133 1 5.765071968515259 22.82694012856241 6.019465798333003 0 0 0
147 1 9.260783401015257 22.826940128562406 8.037715735832998 0 0 0
150 1 6.9303091114054 22.01404842763689 8.037715735832995 0 0 0
151 1 8.095546257812071 23.635502821631718 1.982965923332997 0 0 0
173 1 5.765071964773451 20.390107440688176 6.019465798333003 0 0 0
217 1 6.930309115025794 24.457022885439812 8.037715735832998 0 0 0
15 1 10.426020547525791 24.45702288543981 6.019465798332999 0 0 0
42 1 12.756494829773454 20.39010744068818 6.019465798332998 0 0 0
45 1 11.591257686502928 21.209032716868816 4.001215860833002 0 0 0
56 1 13.921731980025795 24.457022885439812 8.037715735833002 0 0 0
60 1 10.426020547525788 24.45702288543981 1.9829659233330004 0 0 0
82 1 12.756494833515262 22.826940128562406 6.019465798332997 0 0 0
84 1 10.426020543905397 22.014048427636887 6.019465798332998 0 0 0
85 1 11.591257690312068 23.635502821631714 4.001215860833 0 0 0
100 1 12.756494829773457 20.39010744068818 1.982965923333002 0 0 0
103 1 11.59125768650293 21.209032716868816 8.037715735833 0 0 0
117 1 13.921731976405402 22.014048427636887 8.037715735833 0 0 0
137 1 13.921731976405397 22.01404842763689 4.001215860833001 0 0 0
146 1 12.756494833515264 22.82694012856241 1.9829659233330004 0 0 0
148 1 10.426020543905398 22.014048427636887 1.9829659233329977 0 0 0
149 1 11.591257690312068 23.635502821631714 8.037715735833002 0 0 0
226 1 13.921731980025795 24.457022885439805 4.001215860833003 0 0 0
2 1 1.104123392353 26.062058453958 6.019465798333 0 0 0
4 1 3.434597727296 29.41037779161 6.019465798333 0 0 0
13 1 2.26936048991 27.790681807918 8.037715735833 0 0 0
17 1 3.434597727296 26.927767215617 1.982965923333 0 0 0
22 1 4.599834824853 28.324033467998 8.037715735833 0 0 0
30 1 1.104123392353 28.324033467998 1.982965923333 0 0 0
55 1 4.599834824853 26.062058453958 8.037715735833 0 0 0
57 1 1.104123392353 26.062058453958 1.982965923333 0 0 0
139 1 2.26936048991 27.790681807918 4.001215860833 0 0 0
140 1 3.434597727296 26.927767215617 6.019465798333 0 0 0
141 1 4.599834824853 28.324033467998 4.001215860833 0 0 0
143 1 1.104123392353 28.324033467998 6.019465798333 0 0 0
220 1 2.269360539827054 25.26630391406887 8.037715735833 0 0 0
223 1 2.2693605398270567 25.26630391406887 4.001215860833 0 0 0
225 1 4.599834824853 26.062058453958 4.001215860833 0 0 0
229 1 3.434597727296 29.41037779161 1.982965923333 0 0 0
8 1 5.76507192241 27.790681807918 1.982965923333 0 0 0
10 1 9.260783404827055 25.266303914068875 4.001215860833 0 0 0
27 1 8.095546257353 26.062058453958 6.019465798333 0 0 0
59 1 9.260783404827054 25.26630391406887 8.037715735832998 0 0 0
145 1 9.26078335491 27.790681807918 4.001215860833 0 0 0
161 1 6.930309159796 29.41037779161 4.001215860833 0 0 0
170 1 6.930309159796 29.41037779161 8.037715735833 0 0 0
215 1 6.930309159796 26.927767215617 4.001215860833 0 0 0
216 1 8.095546257353 28.324033467998 6.019465798333 0 0 0
218 1 5.765071972327056 25.266303914068867 1.9829659233329997 0 0 0
219 1 8.095546257353 26.062058453958 1.982965923333 0 0 0
221 1 5.765071972327056 25.26630391406887 6.019465798333003 0 0 0
235 1 9.26078335491 27.790681807918 8.037715735833 0 0 0
238 1 6.930309159796 26.927767215617 8.037715735833 0 0 0
239 1 8.095546257353 28.324033467998 1.982965923333 0 0 0
240 1 5.76507192241 27.790681807918 6.019465798333 0 0 0
6 1 12.756494837327056 25.26630391406887 6.019465798333001 0 0 0
18 1 11.591257689853 26.062058453958 4.001215860833 0 0 0
26 1 13.921732024796 26.927767215617 8.037715735833 0 0 0
29 1 13.921732024796 29.41037779161 4.001215860833 0 0 0
37 1 10.426020592296 29.41037779161 6.019465798333 0 0 0
58 1 12.756494837327057 25.26630391406887 1.9829659233329981 0 0 0
61 1 11.591257689853 26.062058453958 8.037715735833 0 0 0
142 1 13.921732024796 26.927767215617 4.001215860833 0 0 0
144 1 12.75649478741 27.790681807918 6.019465798333 0 0 0
167 1 10.426020592296 29.41037779161 1.982965923333 0 0 0
212 1 10.426020592296 26.927767215617 6.019465798333 0 0 0
214 1 11.591257689853 28.324033467998 4.001215860833 0 0 0
232 1 13.921732024796 29.41037779161 8.037715735833 0 0 0
234 1 12.75649478741 27.790681807918 1.982965923333 0 0 0
236 1 10.426020592296 26.927767215617 1.982965923333 0 0 0
237 1 11.591257689853 28.324033467998 8.037715735833 0 0 0

Velocities

12 0 0 0
14 0 0 0
20 0 0 0
74 0 0 0
119 0 0 0
162 0 0 0
164 0 0 0
165 0 0 0
171 0 0 0
207 0 0 0
209 0 0 0
210 0 0 0
211 0 0 0
227 0 0 0
230 0 0 0
231 0 0 0
16 0 0 0
21 0 0 0
25 0 0 0
71 0 0 0
124 0 0 0
125 0 0 0
159 0 0 0
160 0 0 0
163 0 0 0
168 0 0 0
169 0 0 0
172 0 0 0
200 0 0 0
206 0 0 0
208 0 0 0
228 0 0 0
1 0 0 0
7 0 0 0
11 0 0 0
32 0 0 0
33 0 0 0
36 0 0 0
68 0 0 0
77 0 0 0
80 0 0 0
120 0 0 0
121 0 0 0
122 0 0 0
123 0 0 0
166 0 0 0
213 0 0 0
233 0 0 0
19 0 0 0
28 0 0 0
31 0 0 0
53 0 0 0
72 0 0 0
75 0 0 0
76 0 0 0
106 0 0 0
108 0 0 0
109 0 0 0
110 0 0 0
152 0 0 0
201 0 0 0
203 0 0 0
204 0 0 0
205 0 0 0
3 0 0 0
5 0 0 0
50 0 0 0
69 0 0 0
70 0 0 0
73 0 0 0
81 0 0 0
107 0 0 0
130 0 0 0
131 0 0 0
132 0 0 0
188 0 0 0
189 0 0 0
190 0 0 0
199 0 0 0
202 0 0 0
35 0 0 0
38 0 0 0
78 0 0 0
79 0 0 0
111 0 0 0
112 0 0 0
126 0 0 0
127 0 0 0
128 0 0 0
129 0 0 0
155 0 0 0
158 0 0 0
179 0 0 0
183 0 0 0
186 0 0 0
187 0 0 0
51 0 0 0
54 0 0 0
64 0 0 0
153 0 0 0
154 0 0 0
177 0 0 0
191 0 0 0
195 0 0 0
40 0 0 0
48 0 0 0
49 0 0 0
52 0 0 0
98 0 0 0
184 0 0 0
185 0 0 0
192 0 0 0
34 0 0 0
66 0 0 0
96 0 0 0
156 0 0 0
157 0 0 0
181 0 0 0
182 0 0 0
197 0 0 0
63 0 0 0
65 0 0 0
67 0 0 0
90 0 0 0
175 0 0 0
194 0 0 0
196 0 0 0
198 0 0 0
24 0 0 0
41 0 0 0
46 0 0 0
62 0 0 0
95 0 0 0
99 0 0 0
104 0 0 0
193 0 0 0
9 0 0 0
39 0 0 0
44 0 0 0
92 0 0 0
94 0 0 0
97 0 0 0
102 0 0 0
178 0 0 0
89 0 0 0
91 0 0 0
93 0 0 0
114 0 0 0
115 0 0 0
116 0 0 0
118 0 0 0
134 0 0 0
135 0 0 0
136 0 0 0
138 0 0 0
174 0 0 0
176 0 0 0
180 0 0 0
222 0 0 0
224 0 0 0
23 0 0 0
43 0 0 0
47 0 0 0
83 0 0 0
86 0 0 0
87 0 0 0
88 0 0 0
101 0 0 0
105 0 0 0
113 0 0 0
133 0 0 0
147 0 0 0
150 0 0 0
151 0 0 0
173 0 0 0
217 0 0 0
15 0 0 0
42 0 0 0
45 0 0 0
56 0 0 0
60 0 0 0
82 0 0 0
84 0 0 0
85 0 0 0
100 0 0 0
103 0 0 0
117 0 0 0
137 0 0 0
146 0 0 0
148 0 0 0
149 0 0 0
226 0 0 0
2 0 0 0
4 0 0 0
13 0 0 0
17 0 0 0
22 0 0 0
30 0 0 0
55 0 0 0
57 0 0 0
139 0 0 0
140 0 0 0
141 0 0 0
143 0 0 0
220 0 0 0
223 0 0 0
225 0 0 0
229 0 0 0
8 0 0 0
10 0 0 0
27 0 0 0
59 0 0 0
145 0 0 0
161 0 0 0
170 0 0 0
215 0 0 0
216 0 0 0
218 0 0 0
219 0 0 0
221 0 0 0
235 0 0 0
238 0 0 0
239 0 0 0
240 0 0 0
6 0 0 0
18 0 0 0
26 0 0 0
29 0 0 0
37 0 0 0
58 0 0 0
61 0 0 0
142 0 0 0
144 0 0 0
167 0 0 0
212 0 0 0
214 0 0 0
232 0 0 0
234 0 0 0
236 0 0 0
237 0 0 0
