LAMMPS data file via write_data, version 29 Aug 2024, timestep = 27, units = metal

256 atoms
2 atom types

0 14.06520962 xlo xhi
0 28.06401269 ylo yhi
0 8.12055266 zlo zhi

Masses

1 55.8
2 1

Atoms # atomic

14 1 1.057837382915 0.882609793183 6.031986631378 0 0 0
20 1 2.25573232562 1.447644730203 4.014404140079 0 0 0
119 1 2.244360603642 3.952166145731 8.064109215832 0 0 0
162 1 4.60370373332 3.201606388904 8.068442342731 0 0 0
164 1 3.418738515862 2.324412972245 1.977215467643 0 0 0
165 1 1.074861068727 3.19086264902 1.957023713454 0 0 0
171 1 4.591949718945 0.910111628979 4.018430797321 0 0 0
207 1 4.594340382624 3.209464162834 4.011853880516 0 0 0
209 1 3.426008119455 2.326209894442 6.036804230449 0 0 0
210 1 1.081883405934 3.179405063333 6.024229960683 0 0 0
211 1 2.253355164542 3.953160954879 4.005300432108 0 0 0
227 1 4.593113052432 0.910667836943 8.072870642508 0 0 0
230 1 1.069909552332 0.885056909312 1.980914216969 0 0 0
231 1 2.245764874171 1.436182171713 8.062433620996 0 0 0
16 1 8.109115727815 3.202888874678 6.027256896687 0 0 0
21 1 9.274888966746 3.965174251251 4.007438898446 0 0 0
25 1 6.930309524998 2.323694650918 4.010853915662 0 0 0
124 1 8.122515793672 3.208139656878 1.966794037592 0 0 0
125 1 9.297242101135 3.958866499871 8.056910427104 0 0 0
159 1 8.11083379317 0.898923817829 6.045176357831 0 0 0
160 1 9.274785306151 1.454175263136 4.000623562215 0 0 0
163 1 5.759295448311 3.956795327614 1.977751830146 0 0 0
168 1 8.0965370702 0.910650183494 1.979660403638 0 0 0
169 1 9.278640861412 1.456335448559 8.081283859885 0 0 0
172 1 5.742404960035 1.435417106043 6.045955118831 0 0 0
206 1 6.93382892175 2.31972088441 8.074350450819 0 0 0
208 1 5.771856665066 3.95392726375 6.049292584768 0 0 0
228 1 5.752460178392 1.422503732412 1.988217192387 0 0 0
1 1 11.630877262625 3.217544718318 3.977814716315 0 0 0
7 1 12.794040842563 3.956175965058 6.021759444947 0 0 0
11 1 10.452361787691 2.343884726503 6.028276756895 0 0 0
33 1 11.607959972679 0.912363562609 4.014394639032 0 0 0
36 1 12.802098379198 1.473576403598 6.01991250645 0 0 0
120 1 13.966959911241 2.329760724094 8.068561877266 0 0 0
121 1 11.629189718775 3.20945521179 8.058433193139 0 0 0
122 1 12.801934519506 3.956410929978 1.96886697107 0 0 0
123 1 10.462057921247 2.332371196787 1.958851649858 0 0 0
166 1 12.796014894733 1.441792984817 1.969021342776 0 0 0
213 1 13.964454616104 2.329442216092 3.985067750334 0 0 0
233 1 11.607715519335 0.915017298683 8.049571315227 0 0 0
12 1 3.418876672859504 4.811753178668082 1.9734356236128399 0 0 0
19 1 1.0798620826871406 5.615706795754023 1.9675812653987674 0 0 0
28 1 2.249229689798208 6.415124277893247 8.060842473865241 0 0 0
31 1 4.592735538632354 5.610655400759605 8.06367876453168 0 0 0
72 1 4.589138855104789 5.618123337292347 3.9999737119420273 0 0 0
74 1 3.4200100023906317 4.799085385799487 6.034078429581926 0 0 0
75 1 1.075187174731896 5.619012352905119 6.024917143731686 0 0 0
76 1 2.2513417207137487 6.43309843838327 3.9985138514898377 0 0 0
106 1 4.589713007687249 8.065214787525942 3.9999790644180035 0 0 0
108 1 3.424474846760153 7.218479939854897 6.031625587881507 0 0 0
109 1 1.084364310076506 8.075271432316507 6.005798116942263 0 0 0
110 1 2.2701253356053885 8.908479538366956 3.976612229124321 0 0 0
201 1 4.589460691492447 8.048596886720619 8.070774233774731 0 0 0
203 1 3.4253554664648656 7.2586734990051935 1.9750750410196374 0 0 0
204 1 1.0951831733097885 8.057743192959506 1.9613886141051662 0 0 0
205 1 2.2714479011257285 8.853181973600881 8.059494493889835 0 0 0
5 1 5.763621243897956 6.427974292191781 1.9680061517173895 0 0 0
69 1 8.10680126300904 5.620147228119072 1.9666727607924914 0 0 0
70 1 9.275117642018097 6.4301579869255345 8.05192151539086 0 0 0
71 1 6.942940971558841 4.809367647171126 8.066344400858883 0 0 0
73 1 5.765618525052995 6.406508710903335 6.028135446399638 0 0 0
81 1 8.111639973796132 5.609726488475665 6.0251531532710185 0 0 0
107 1 5.724556898610374 8.835538761579624 6.0248356176240305 0 0 0
130 1 8.090255771434247 8.073986952580091 1.969102216813654 0 0 0
131 1 9.18922485042461 8.86953418722837 8.035450063955553 0 0 0
132 1 6.9261249729139065 7.244530900180237 8.062151514946988 0 0 0
188 1 8.132594934451516 8.026812680941596 5.993523709449876 0 0 0
189 1 9.287572055605798 8.898748491516693 3.9803109509496513 0 0 0
190 1 6.932869481587335 7.236847521025667 3.9887945878690934 0 0 0
199 1 9.279194135117526 6.431441120134237 3.9893562620532093 0 0 0
200 1 6.934418524111054 4.807257371665603 3.999377955942544 0 0 0
202 1 5.73716025710461 8.885676270106856 1.9800559422374238 0 0 0
247 2 7.253017848353426 9.402841301405198 6.480404243019741 0 0 0
32 1 13.969382324261137 4.8200992623457735 8.052643859397639 0 0 0
35 1 11.628964081243723 5.634468364580369 8.049088548096996 0 0 0
38 1 12.799873608221283 6.42056280240264 1.9605958668492622 0 0 0
68 1 10.455402845079645 4.8183547134932985 1.9654300437278287 0 0 0
77 1 13.972327099151785 4.817334260855691 3.9964416740552196 0 0 0
78 1 11.629742402399712 5.630168033807857 3.9925681671693023 0 0 0
79 1 12.79984911224538 6.457567906371066 6.019798136611013 0 0 0
80 1 10.459267801835127 4.817133863223726 6.023247214280729 0 0 0
111 1 13.977506119267185 7.26479542069374 3.9884664799622005 0 0 0
112 1 11.629243621613375 8.086663147279681 3.984317968033415 0 0 0
126 1 13.97789549374037 7.276301492668367 8.042806527447762 0 0 0
127 1 11.609406286523742 8.080235674849797 8.026612369194826 0 0 0
128 1 12.827748999964498 8.832675081410208 1.9868218610512507 0 0 0
129 1 10.443426589880596 7.248864528655838 1.9636983174938323 0 0 0
186 1 12.831043568703391 8.966206261123464 5.981458411125053 0 0 0
187 1 10.452810659001136 7.2462985610377135 6.008276490277316 0 0 0
51 1 4.57938400603456 10.648848175784803 3.9994947610664084 0 0 0
53 1 3.4629917601157474 9.627307590221166 6.078135755567259 0 0 0
54 1 1.198224591256595 10.580991762675815 5.899986530552301 0 0 0
64 1 3.579467542420342 12.155485035020803 6.0820529942065 0 0 0
152 1 3.4191552347190703 9.755121501222218 1.9681224623330629 0 0 0
153 1 1.0961288115279229 10.564880177717821 1.9275684377398972 0 0 0
154 1 2.2477294724804513 11.296445537491438 8.014745068887658 0 0 0
177 1 2.1160049667984926 11.557341006999112 3.813236373033853 0 0 0
191 1 4.585708410460841 10.594423034801759 8.077664628706346 0 0 0
195 1 3.3697294505038804 12.219137895820879 1.7953208254065574 0 0 0
243 2 3.4872814470269713 12.471959389965225 7.941908690189858 0 0 0
251 2 0.7767290403034146 12.201167356227273 4.960689911335612 0 0 0
252 2 3.0621121502535265 10.786802694001004 4.958100630998025 0 0 0
3 1 6.925047287332823 9.693102254524023 3.9921200310415736 0 0 0
40 1 6.950496423458538 12.147565990006152 0.03192428923516188 0 0 1
48 1 8.082824227634228 10.629432680145797 1.9845193345804244 0 0 0
49 1 9.312643156050738 11.377365244830004 8.099782778713283 0 0 0
50 1 6.90602316367572 9.744915627222078 8.113878630620912 0 0 0
52 1 5.813611238371136 11.292252373333453 6.065055781024417 0 0 0
98 1 6.883809355277161 12.081113850568457 3.997628822095364 0 0 0
184 1 8.189612682975499 10.742416919609912 5.992555606267799 0 0 0
185 1 9.285409493373898 11.374131187682448 3.961374243701676 0 0 0
192 1 5.740217901370729 11.312574239323887 1.9746848619582502 0 0 0
242 2 8.339205127968777 12.370995809608154 5.058479306802624 0 0 0
254 2 5.19479736257451 12.369579794357316 4.873727792106639 0 0 0
256 2 7.138884293121871 12.314757810753235 2.1230678078096297 0 0 0
34 1 10.570647792604861 12.13307062086936 1.9657439666765522 0 0 0
66 1 13.905385246190898 12.44839973781079 3.531310073476055 0 0 0
96 1 10.515738412494219 12.109483737748107 6.0050560911524515 0 0 0
155 1 0.02152720624853366 9.823280044789053 7.970752961997576 1 0 0
156 1 11.743901703889527 10.920047454783719 7.908679976368491 0 0 0
157 1 12.782025716947262 11.200335973355026 1.9497802138453901 0 0 0
158 1 10.434309026588764 9.718890226528172 1.9848274614049224 0 0 0
179 1 13.993760870471313 9.747723703260808 3.95952599210947 0 0 0
181 1 11.66895841341524 10.67990198091972 4.0159917450023634 0 0 0
182 1 13.196708858672887 11.775948845705097 5.928031081722329 0 0 0
183 1 10.428359975492084 9.69969580099917 5.9918485068911185 0 0 0
197 1 0.053594146273981735 12.544014560178004 0.4926586265501793 1 0 1
244 2 12.061757851110208 12.340540500455624 3.116439025799524 0 0 0
245 2 0.46476441709970534 11.459938551784544 7.26918359442391 1 0 0
246 2 10.725954556449345 12.433325482799317 0.09585708965033632 0 0 0
248 2 10.607587259787097 9.673251102490935 0.2054381379814252 0 0 0
253 2 11.874312982794311 10.657975515051652 6.030459709197547 0 0 0
255 2 12.546754079519623 9.469123221562148 0.41601305140825134 0 0 0
63 1 2.17747548057715 16.42783615910888 4.031202732268094 0 0 0
65 1 4.5598147638861 17.183389680635514 4.011628356549996 0 0 0
67 1 1.0728429650222677 17.201370903379285 6.069460393032853 0 0 0
90 1 3.397306617202145 17.923444614420642 1.9861987807397978 0 0 0
175 1 3.39400608526568 17.934121816293608 6.024294710402734 0 0 0
194 1 2.2610552467901575 16.42331187970184 8.119374282400832 0 0 0
196 1 4.571138162175292 17.233978695819644 8.063967409364063 0 0 0
198 1 1.0524683465479399 17.207447345233433 1.9953700533833427 0 0 0
250 2 3.8224787591174594 16.349578366297163 1.25473793933432 0 0 0
24 1 9.276703314827092 16.447782423406508 8.074521900718999 0 0 0
41 1 8.087058828833651 17.210652666554733 1.9720983712345248 0 0 0
46 1 6.895269066519017 17.904541035889306 3.9911318178393658 0 0 0
62 1 5.718265064641116 16.4426189025865 6.062206271818207 0 0 0
95 1 9.254893801312775 16.46953430917539 3.993676988461175 0 0 0
99 1 8.063627143080382 17.1729934207623 6.016585749509032 0 0 0
104 1 6.920814384690119 17.917783273925984 8.053946195814953 0 0 0
193 1 5.725384942396405 16.46443495584061 1.927765589295128 0 0 0
249 2 6.057901701986205 16.322881039117966 7.9633393384745785 0 0 -1
9 1 12.824852417322194 16.313137232931208 2.013785727432717 0 0 0
39 1 11.642326664204804 17.133001116121207 0.027779874779548477 0 0 1
44 1 10.35649503676542 17.852684075493666 5.967853528806571 0 0 0
92 1 13.977233243819004 17.922274340883785 8.092467384501601 0 0 0
94 1 12.778904435015155 16.46442447245485 6.022626902598735 0 0 0
97 1 11.609253324488428 17.185608835048992 3.9756927473083117 0 0 0
102 1 10.43820327143073 17.911514456485108 1.9831588941226845 0 0 0
178 1 13.959937903374868 17.91003559605292 4.011174468339255 0 0 0
241 2 11.547612785570456 18.41164814702127 6.996738803561272 0 0 0
89 1 2.23749491401249 18.811396406255735 8.0650408762873 0 0 0
91 1 4.577330120320415 19.644479820675713 8.059088684140534 0 0 0
93 1 1.0686612755498588 19.629115348600855 1.977243655353708 0 0 0
114 1 2.242130804867673 21.257162293901082 8.05928283833679 0 0 0
115 1 3.4080774415469945 20.440263175493165 1.9700931096483343 0 0 0
116 1 4.5834848373286246 22.07655380952476 8.060209325572815 0 0 0
118 1 1.0652373861341276 22.06228436930284 1.9685042891173603 0 0 0
134 1 2.237732307530068 21.253637452917374 3.9984507218394074 0 0 0
135 1 3.410144992056524 20.44966336719818 6.027369297707103 0 0 0
136 1 4.5804911040614575 22.072521072087692 3.998893382024468 0 0 0
138 1 1.0688871624307232 22.068666694054016 6.0263471580059615 0 0 0
174 1 2.2346908702259483 18.799632333311482 4.006697631278809 0 0 0
176 1 4.572107093951224 19.627356220182097 3.9993955003147152 0 0 0
180 1 1.0764292680077188 19.634870577028817 6.032688281703118 0 0 0
222 1 3.4093590922928616 22.887428220290772 1.969048230332084 0 0 0
224 1 3.412615460236657 22.889165125439764 6.026467584284 0 0 0
23 1 6.924271000673255 22.893513298733893 4.001070331556853 0 0 0
43 1 9.246760769085286 18.80890511094242 3.9863961829101053 0 0 0
47 1 8.085728379996624 19.619092763783044 6.030406440904683 0 0 0
83 1 9.263859520027186 21.257347129171897 4.004729533680263 0 0 0
86 1 6.918750925283347 20.443456671602583 3.9988945423110414 0 0 0
87 1 8.096116644883939 22.067974321006584 6.031470605962875 0 0 0
88 1 5.750480433965422 18.83020092620254 1.9793422210322529 0 0 0
101 1 9.258633569109533 18.801177581072857 8.067090495501354 0 0 0
105 1 8.090767293571776 19.63490043408771 1.9641704056990488 0 0 0
113 1 5.752292456675709 21.26625661831979 1.9699805423154158 0 0 0
133 1 5.752022178284207 21.2596413790136 6.029221220150383 0 0 0
147 1 9.266643440610592 21.259900760463303 8.061749127349644 0 0 0
150 1 6.922565247317743 20.44175079760943 8.057565136716146 0 0 0
151 1 8.09641053953765 22.076451952571947 1.9699519471465696 0 0 0
173 1 5.737138130433576 18.812389684324742 6.0207886832044375 0 0 0
217 1 6.926957959108982 22.89399267206475 8.060354027843674 0 0 0
15 1 10.440487809279123 22.888793822874536 6.0305632869541865 0 0 0
42 1 12.8354802168585 18.82419990974947 6.002661358583813 0 0 0
45 1 11.61111953835775 19.62449790653291 3.9955487878944034 0 0 0
56 1 13.960314582620667 22.8898268992251 8.056399817987252 0 0 0
60 1 10.438647965014809 22.893242868636637 1.9712846125582615 0 0 0
82 1 12.79139847651568 21.265534155573015 6.029602294579713 0 0 0
84 1 10.438113628723356 20.439517180372377 6.030440347605022 0 0 0
85 1 11.611706656939253 22.06327588924594 4.001021731145818 0 0 0
100 1 12.793723087949264 18.77277487847772 1.9931063406941694 0 0 0
103 1 11.618708556416339 19.66814651072752 8.116676606099896 0 0 0
117 1 13.967468832254925 20.4485924623068 8.068213842849817 0 0 0
137 1 13.959392390274374 20.43863527051 4.001597998727305 0 0 0
146 1 12.786785704946261 21.246586278971762 1.9746377933473003 0 0 0
148 1 10.433532729100255 20.4477823463371 1.9806192524581854 0 0 0
149 1 11.613340008990114 22.077467938150857 8.064813006838945 0 0 0
226 1 13.958078790403794 22.882153005149927 3.996240366038797 0 0 0
2 1 1.076727381391 24.486469888427 6.014516399208 0 0 0
4 1 3.40994705659 27.868465186677 6.018819642473 0 0 0
13 1 2.231707400416 26.219436872092 8.061255166394 0 0 0
17 1 3.400807342726 25.360067222931 1.978711111032 0 0 0
22 1 4.573483505235 26.817418863688 8.061385988497 0 0 0
30 1 1.048241393652 26.792818409533 1.955998087653 0 0 0
55 1 4.583388647805 24.508692099769 8.068630089909 0 0 0
57 1 1.05661244381 24.486834146213 1.962799781355 0 0 0
139 1 2.215835795925 26.236208145932 4.004391742266 0 0 0
140 1 3.405626364846 25.356368701043 6.018140358243 0 0 0
141 1 4.577589421227 26.801967620282 3.996477126821 0 0 0
143 1 1.058017558251 26.787563649091 6.048239430294 0 0 0
220 1 2.2391994520140743 23.701799833041232 8.057227463083798 0 0 0
223 1 2.2372039003092676 23.699106721087393 3.9925277795697793 0 0 0
225 1 4.575138277146 24.508764702686 3.997607182929 0 0 0
229 1 3.394482639917 27.867230937087 1.985170036207 0 0 0
8 1 5.764516735426 26.255935750881 1.957580620955 0 0 0
10 1 9.267948659560336 23.70892779662379 3.999561090180114 0 0 0
27 1 8.098971336029 24.503884394275 6.036138669953 0 0 0
59 1 9.270519009751943 23.714414688555006 8.059385346941713 0 0 0
145 1 9.278891784752 26.240725439758 4.00373706331 0 0 0
161 1 6.939146555551 27.877497536567 4.006002941119 0 0 0
170 1 6.937718936774 27.880692313558 8.054253869507 0 0 0
215 1 6.92729760101 25.369423550906 3.993871809911 0 0 0
216 1 8.100270680094 26.800166222563 6.027167976635 0 0 0
218 1 5.754225217630849 23.713508183978515 1.9722521384420286 0 0 0
219 1 8.100162096675 24.513224312002 1.958446921513 0 0 0
221 1 5.7539648753857655 23.714135332579108 6.031147345528047 0 0 0
235 1 9.283640762128 26.286751710928 8.076086706183 0 0 0
238 1 6.935354434385 25.372930868536 8.07316631183 0 0 0
239 1 8.098209564276 26.814094047911 1.995625734989 0 0 0
240 1 5.744090534756 26.255448167592 6.033969020693 0 0 0
6 1 12.786082742057827 23.707966071285664 6.026900680446511 0 0 0
18 1 11.617012904198 24.489855621035 3.995117746306 0 0 0
26 1 13.958898717652 25.369825850631 8.04507131097 0 0 0
29 1 13.950212044191 27.879561746901 3.992627010394 0 0 0
37 1 10.444634783482 27.896639096737 6.03736714716 0 0 0
58 1 12.784139880826348 23.696033496758794 1.9641809939464767 0 0 0
61 1 11.60650605196 24.50103274066 8.055540246254 0 0 0
142 1 13.957838200847 25.359328015833 3.993168326434 0 0 0
144 1 12.776089696829 26.24713687407 6.016990569192 0 0 0
167 1 10.442632460241 27.907563597992 1.981290523379 0 0 0
212 1 10.437962810647 25.38024660699 6.034886237116 0 0 0
214 1 11.622113933771 26.799369330956 3.997829767278 0 0 0
232 1 13.943125850932 27.897755988187 8.066013891458 0 0 0
234 1 12.783040582771 26.217976359987 1.975268646348 0 0 0
236 1 10.450743022716 25.377436476275 1.967506534883 0 0 0
237 1 11.635301333659 26.810247087868 8.073659229376 0 0 0

Velocities

14 0 0 0
20 0 0 0
119 0 0 0
162 0 0 0
164 0 0 0
165 0 0 0
171 0 0 0
207 0 0 0
209 0 0 0
210 0 0 0
211 0 0 0
227 0 0 0
230 0 0 0
231 0 0 0
16 0 0 0
21 0 0 0
25 0 0 0
124 0 0 0
125 0 0 0
159 0 0 0
160 0 0 0
163 0 0 0
168 0 0 0
169 0 0 0
172 0 0 0
206 0 0 0
208 0 0 0
228 0 0 0
1 0 0 0
7 0 0 0
11 0 0 0
33 0 0 0
36 0 0 0
120 0 0 0
121 0 0 0
122 0 0 0
123 0 0 0
166 0 0 0
213 0 0 0
233 0 0 0
12 0 0 0
19 0 0 0
28 0 0 0
31 0 0 0
72 0 0 0
74 0 0 0
75 0 0 0
76 0 0 0
106 0 0 0
108 0 0 0
109 0 0 0
110 0 0 0
201 0 0 0
203 0 0 0
204 0 0 0
205 0 0 0
5 0 0 0
69 0 0 0
70 0 0 0
71 0 0 0
73 0 0 0
81 0 0 0
107 0 0 0
130 0 0 0
131 0 0 0
132 0 0 0
188 0 0 0
189 0 0 0
190 0 0 0
199 0 0 0
200 0 0 0
202 0 0 0
247 0 0 0
32 0 0 0
35 0 0 0
38 0 0 0
68 0 0 0
77 0 0 0
78 0 0 0
79 0 0 0
80 0 0 0
111 0 0 0
112 0 0 0
126 0 0 0
127 0 0 0
128 0 0 0
129 0 0 0
186 0 0 0
187 0 0 0
51 0 0 0
53 0 0 0
54 0 0 0
64 0 0 0
152 0 0 0
153 0 0 0
154 0 0 0
177 0 0 0
191 0 0 0
195 0 0 0
243 0 0 0
251 0 0 0
252 0 0 0
3 0 0 0
40 0 0 0
48 0 0 0
49 0 0 0
50 0 0 0
52 0 0 0
98 0 0 0
184 0 0 0
185 0 0 0
192 0 0 0
242 0 0 0
254 0 0 0
256 0 0 0
34 0 0 0
66 0 0 0
96 0 0 0
155 0 0 0
156 0 0 0
157 0 0 0
158 0 0 0
179 0 0 0
181 0 0 0
182 0 0 0
183 0 0 0
197 0 0 0
244 0 0 0
245 0 0 0
246 0 0 0
248 0 0 0
253 0 0 0
255 0 0 0
63 0 0 0
65 0 0 0
67 0 0 0
90 0 0 0
175 0 0 0
194 0 0 0
196 0 0 0
198 0 0 0
250 0 0 0
24 0 0 0
41 0 0 0
46 0 0 0
62 0 0 0
95 0 0 0
99 0 0 0
104 0 0 0
193 0 0 0
249 0 0 0
9 0 0 0
39 0 0 0
44 0 0 0
92 0 0 0
94 0 0 0
97 0 0 0
102 0 0 0
178 0 0 0
241 0 0 0
89 0 0 0
91 0 0 0
93 0 0 0
114 0 0 0
115 0 0 0
116 0 0 0
118 0 0 0
134 0 0 0
135 0 0 0
136 0 0 0
138 0 0 0
174 0 0 0
176 0 0 0
180 0 0 0
222 0 0 0
224 0 0 0
23 0 0 0
43 0 0 0
47 0 0 0
83 0 0 0
86 0 0 0
87 0 0 0
88 0 0 0
101 0 0 0
105 0 0 0
113 0 0 0
133 0 0 0
147 0 0 0
150 0 0 0
151 0 0 0
173 0 0 0
217 0 0 0
15 0 0 0
42 0 0 0
45 0 0 0
56 0 0 0
60 0 0 0
82 0 0 0
84 0 0 0
85 0 0 0
100 0 0 0
103 0 0 0
117 0 0 0
137 0 0 0
146 0 0 0
148 0 0 0
149 0 0 0
226 0 0 0
2 0 0 0
4 0 0 0
13 0 0 0
17 0 0 0
22 0 0 0
30 0 0 0
55 0 0 0
57 0 0 0
139 0 0 0
140 0 0 0
141 0 0 0
143 0 0 0
220 0 0 0
223 0 0 0
225 0 0 0
229 0 0 0
8 0 0 0
10 0 0 0
27 0 0 0
59 0 0 0
145 0 0 0
161 0 0 0
170 0 0 0
215 0 0 0
216 0 0 0
218 0 0 0
219 0 0 0
221 0 0 0
235 0 0 0
238 0 0 0
239 0 0 0
240 0 0 0
6 0 0 0
18 0 0 0
26 0 0 0
29 0 0 0
37 0 0 0
58 0 0 0
61 0 0 0
142 0 0 0
144 0 0 0
167 0 0 0
212 0 0 0
214 0 0 0
232 0 0 0
234 0 0 0
236 0 0 0
237 0 0 0
