 # File generated with Atomsk by user on 2025-05-28 00:34:46
  
         288  atoms
           1  atom types
 
      0.000000000000      11.317147000000  xlo xhi
      0.000000000000      28.563582000000  ylo yhi
      0.000000000000      11.317147000000  zlo zhi
 
Masses
 
            1   55.84500000             # Fe
 
Atoms # atomic
 
         1    1        0.000000000000       0.000000000000       0.000000000000
         2    1        1.414643375000       1.414643557616       1.414643375000
         3    1        0.000000000000       0.000000000000       2.829286750000
         4    1        1.414643375000       1.414643557616       4.243930125000
         5    1        0.000000000000       0.000000000000       5.658573500000
         6    1        1.414643375000       1.414643557616       7.073216875000
         7    1        0.000000000000       0.000000000000       8.487860250000
         8    1        1.414643375000       1.414643557616       9.902503625000
         9    1        0.000000000000       2.829286605960       0.000000000000
        10    1        1.414643375000       4.243931182119       1.414643375000
        11    1        0.000000000000       2.829286605960       2.829286750000
        12    1        1.414643375000       4.243931182119       4.243930125000
        13    1        0.000000000000       2.829286605960       5.658573500000
        14    1        1.414643375000       4.243931182119       7.073216875000
        15    1        0.000000000000       2.829286605960       8.487860250000
        16    1        1.414643375000       4.243931182119       9.902503625000
        17    1        0.000000000000       5.658573211920       0.000000000000
        18    1        1.414643375000       7.073217788080       1.414643375000
        19    1        0.000000000000       5.658573211920       2.829286750000
        20    1        1.414643375000       7.073217788080       4.243930125000
        21    1        0.000000000000       5.658573211920       5.658573500000
        22    1        1.414643375000       7.073217788080       7.073216875000
        23    1        0.000000000000       5.658573211920       8.487860250000
        24    1        1.414643375000       7.073217788080       9.902503625000
        25    1        0.000000000000       8.487859817881       0.000000000000
        26    1        1.414643375000       9.902504394040       1.414643375000
        27    1        0.000000000000       8.487859817881       2.829286750000
        28    1        1.414643375000       9.902504394040       4.243930125000
        29    1        0.000000000000       8.487859817881       5.658573500000
        30    1        1.414643375000       9.902504394040       7.073216875000
        31    1        0.000000000000       8.487859817881       8.487860250000
        32    1        1.414643375000       9.902504394040       9.902503625000
        33    1        0.000000000000      11.317146423841       0.000000000000
        34    1        1.414643375000      12.731791000000       1.414643375000
        35    1        0.000000000000      11.317146423841       2.829286750000
        36    1        1.414643375000      12.731791000000       4.243930125000
        37    1        0.000000000000      11.317146423841       5.658573500000
        38    1        1.414643375000      12.731791000000       7.073216875000
        39    1        0.000000000000      11.317146423841       8.487860250000
        40    1        1.414643375000      12.731791000000       9.902503625000
        41    1        0.000000000000      17.246435576159       0.000000000000
        42    1        1.414643375000      18.661077605960       1.414643375000
        43    1        0.000000000000      17.246435576159       2.829286750000
        44    1        1.414643375000      18.661077605960       4.243930125000
        45    1        0.000000000000      17.246435576159       5.658573500000
        46    1        1.414643375000      18.661077605960       7.073216875000
        47    1        0.000000000000      17.246435576159       8.487860250000
        48    1        1.414643375000      18.661077605960       9.902503625000
        49    1        0.000000000000      20.075722182119       0.000000000000
        50    1        1.414643375000      21.490364211920       1.414643375000
        51    1        0.000000000000      20.075722182119       2.829286750000
        52    1        1.414643375000      21.490364211920       4.243930125000
        53    1        0.000000000000      20.075722182119       5.658573500000
        54    1        1.414643375000      21.490364211920       7.073216875000
        55    1        0.000000000000      20.075722182119       8.487860250000
        56    1        1.414643375000      21.490364211920       9.902503625000
        57    1        0.000000000000      22.905008788080       0.000000000000
        58    1        1.414643375000      24.319650817881       1.414643375000
        59    1        0.000000000000      22.905008788080       2.829286750000
        60    1        1.414643375000      24.319650817881       4.243930125000
        61    1        0.000000000000      22.905008788080       5.658573500000
        62    1        1.414643375000      24.319650817881       7.073216875000
        63    1        0.000000000000      22.905008788080       8.487860250000
        64    1        1.414643375000      24.319650817881       9.902503625000
        65    1        0.000000000000      25.734295394040       0.000000000000
        66    1        1.414643375000      27.148937423841       1.414643375000
        67    1        0.000000000000      25.734295394040       2.829286750000
        68    1        1.414643375000      27.148937423841       4.243930125000
        69    1        0.000000000000      25.734295394040       5.658573500000
        70    1        1.414643375000      27.148937423841       7.073216875000
        71    1        0.000000000000      25.734295394040       8.487860250000
        72    1        1.414643375000      27.148937423841       9.902503625000
        73    1        2.829286750000       0.000000000000       0.000000000000
        74    1        4.243930125000       1.414643557616       1.414643375000
        75    1        2.829286750000       0.000000000000       2.829286750000
        76    1        4.243930125000       1.414643557616       4.243930125000
        77    1        2.829286750000       0.000000000000       5.658573500000
        78    1        4.243930125000       1.414643557616       7.073216875000
        79    1        2.829286750000       0.000000000000       8.487860250000
        80    1        4.243930125000       1.414643557616       9.902503625000
        81    1        2.829286750000       2.829286605960       0.000000000000
        82    1        4.243930125000       4.243931182119       1.414643375000
        83    1        2.829286750000       2.829286605960       2.829286750000
        84    1        4.243930125000       4.243931182119       4.243930125000
        85    1        2.829286750000       2.829286605960       5.658573500000
        86    1        4.243930125000       4.243931182119       7.073216875000
        87    1        2.829286750000       2.829286605960       8.487860250000
        88    1        4.243930125000       4.243931182119       9.902503625000
        89    1        2.829286750000       5.658573211920       0.000000000000
        90    1        4.243930125000       7.073217788080       1.414643375000
        91    1        2.829286750000       5.658573211920       2.829286750000
        92    1        4.243930125000       7.073217788080       4.243930125000
        93    1        2.829286750000       5.658573211920       5.658573500000
        94    1        4.243930125000       7.073217788080       7.073216875000
        95    1        2.829286750000       5.658573211920       8.487860250000
        96    1        4.243930125000       7.073217788080       9.902503625000
        97    1        2.829286750000       8.487859817881       0.000000000000
        98    1        4.243930125000       9.902504394040       1.414643375000
        99    1        2.829286750000       8.487859817881       2.829286750000
       100    1        4.243930125000       9.902504394040       4.243930125000
       101    1        2.829286750000       8.487859817881       5.658573500000
       102    1        4.243930125000       9.902504394040       7.073216875000
       103    1        2.829286750000       8.487859817881       8.487860250000
       104    1        4.243930125000       9.902504394040       9.902503625000
       105    1        2.829286750000      11.317146423841       0.000000000000
       106    1        4.243930125000      12.731791000000       1.414643375000
       107    1        2.829286750000      11.317146423841       2.829286750000
       108    1        4.243930125000      12.731791000000       4.243930125000
       109    1        2.829286750000      11.317146423841       5.658573500000
       110    1        4.243930125000      12.731791000000       7.073216875000
       111    1        2.829286750000      11.317146423841       8.487860250000
       112    1        4.243930125000      12.731791000000       9.902503625000
       113    1        2.829286750000      17.246435576159       0.000000000000
       114    1        4.243930125000      18.661077605960       1.414643375000
       115    1        2.829286750000      17.246435576159       2.829286750000
       116    1        4.243930125000      18.661077605960       4.243930125000
       117    1        2.829286750000      17.246435576159       5.658573500000
       118    1        4.243930125000      18.661077605960       7.073216875000
       119    1        2.829286750000      17.246435576159       8.487860250000
       120    1        4.243930125000      18.661077605960       9.902503625000
       121    1        2.829286750000      20.075722182119       0.000000000000
       122    1        4.243930125000      21.490364211920       1.414643375000
       123    1        2.829286750000      20.075722182119       2.829286750000
       124    1        4.243930125000      21.490364211920       4.243930125000
       125    1        2.829286750000      20.075722182119       5.658573500000
       126    1        4.243930125000      21.490364211920       7.073216875000
       127    1        2.829286750000      20.075722182119       8.487860250000
       128    1        4.243930125000      21.490364211920       9.902503625000
       129    1        2.829286750000      22.905008788080       0.000000000000
       130    1        4.243930125000      24.319650817881       1.414643375000
       131    1        2.829286750000      22.905008788080       2.829286750000
       132    1        4.243930125000      24.319650817881       4.243930125000
       133    1        2.829286750000      22.905008788080       5.658573500000
       134    1        4.243930125000      24.319650817881       7.073216875000
       135    1        2.829286750000      22.905008788080       8.487860250000
       136    1        4.243930125000      24.319650817881       9.902503625000
       137    1        2.829286750000      25.734295394040       0.000000000000
       138    1        4.243930125000      27.148937423841       1.414643375000
       139    1        2.829286750000      25.734295394040       2.829286750000
       140    1        4.243930125000      27.148937423841       4.243930125000
       141    1        2.829286750000      25.734295394040       5.658573500000
       142    1        4.243930125000      27.148937423841       7.073216875000
       143    1        2.829286750000      25.734295394040       8.487860250000
       144    1        4.243930125000      27.148937423841       9.902503625000
       145    1        5.658573500000       0.000000000000       0.000000000000
       146    1        7.073216875000       1.414643557616       1.414643375000
       147    1        5.658573500000       0.000000000000       2.829286750000
       148    1        7.073216875000       1.414643557616       4.243930125000
       149    1        5.658573500000       0.000000000000       5.658573500000
       150    1        7.073216875000       1.414643557616       7.073216875000
       151    1        5.658573500000       0.000000000000       8.487860250000
       152    1        7.073216875000       1.414643557616       9.902503625000
       153    1        5.658573500000       2.829286605960       0.000000000000
       154    1        7.073216875000       4.243931182119       1.414643375000
       155    1        5.658573500000       2.829286605960       2.829286750000
       156    1        7.073216875000       4.243931182119       4.243930125000
       157    1        5.658573500000       2.829286605960       5.658573500000
       158    1        7.073216875000       4.243931182119       7.073216875000
       159    1        5.658573500000       2.829286605960       8.487860250000
       160    1        7.073216875000       4.243931182119       9.902503625000
       161    1        5.658573500000       5.658573211920       0.000000000000
       162    1        7.073216875000       7.073217788080       1.414643375000
       163    1        5.658573500000       5.658573211920       2.829286750000
       164    1        7.073216875000       7.073217788080       4.243930125000
       165    1        5.658573500000       5.658573211920       5.658573500000
       166    1        7.073216875000       7.073217788080       7.073216875000
       167    1        5.658573500000       5.658573211920       8.487860250000
       168    1        7.073216875000       7.073217788080       9.902503625000
       169    1        5.658573500000       8.487859817881       0.000000000000
       170    1        7.073216875000       9.902504394040       1.414643375000
       171    1        5.658573500000       8.487859817881       2.829286750000
       172    1        7.073216875000       9.902504394040       4.243930125000
       173    1        5.658573500000       8.487859817881       5.658573500000
       174    1        7.073216875000       9.902504394040       7.073216875000
       175    1        5.658573500000       8.487859817881       8.487860250000
       176    1        7.073216875000       9.902504394040       9.902503625000
       177    1        5.658573500000      11.317146423841       0.000000000000
       178    1        7.073216875000      12.731791000000       1.414643375000
       179    1        5.658573500000      11.317146423841       2.829286750000
       180    1        7.073216875000      12.731791000000       4.243930125000
       181    1        5.658573500000      11.317146423841       5.658573500000
       182    1        7.073216875000      12.731791000000       7.073216875000
       183    1        5.658573500000      11.317146423841       8.487860250000
       184    1        7.073216875000      12.731791000000       9.902503625000
       185    1        5.658573500000      17.246435576159       0.000000000000
       186    1        7.073216875000      18.661077605960       1.414643375000
       187    1        5.658573500000      17.246435576159       2.829286750000
       188    1        7.073216875000      18.661077605960       4.243930125000
       189    1        5.658573500000      17.246435576159       5.658573500000
       190    1        7.073216875000      18.661077605960       7.073216875000
       191    1        5.658573500000      17.246435576159       8.487860250000
       192    1        7.073216875000      18.661077605960       9.902503625000
       193    1        5.658573500000      20.075722182119       0.000000000000
       194    1        7.073216875000      21.490364211920       1.414643375000
       195    1        5.658573500000      20.075722182119       2.829286750000
       196    1        7.073216875000      21.490364211920       4.243930125000
       197    1        5.658573500000      20.075722182119       5.658573500000
       198    1        7.073216875000      21.490364211920       7.073216875000
       199    1        5.658573500000      20.075722182119       8.487860250000
       200    1        7.073216875000      21.490364211920       9.902503625000
       201    1        5.658573500000      22.905008788080       0.000000000000
       202    1        7.073216875000      24.319650817881       1.414643375000
       203    1        5.658573500000      22.905008788080       2.829286750000
       204    1        7.073216875000      24.319650817881       4.243930125000
       205    1        5.658573500000      22.905008788080       5.658573500000
       206    1        7.073216875000      24.319650817881       7.073216875000
       207    1        5.658573500000      22.905008788080       8.487860250000
       208    1        7.073216875000      24.319650817881       9.902503625000
       209    1        5.658573500000      25.734295394040       0.000000000000
       210    1        7.073216875000      27.148937423841       1.414643375000
       211    1        5.658573500000      25.734295394040       2.829286750000
       212    1        7.073216875000      27.148937423841       4.243930125000
       213    1        5.658573500000      25.734295394040       5.658573500000
       214    1        7.073216875000      27.148937423841       7.073216875000
       215    1        5.658573500000      25.734295394040       8.487860250000
       216    1        7.073216875000      27.148937423841       9.902503625000
       217    1        8.487860250000       0.000000000000       0.000000000000
       218    1        9.902503625000       1.414643557616       1.414643375000
       219    1        8.487860250000       0.000000000000       2.829286750000
       220    1        9.902503625000       1.414643557616       4.243930125000
       221    1        8.487860250000       0.000000000000       5.658573500000
       222    1        9.902503625000       1.414643557616       7.073216875000
       223    1        8.487860250000       0.000000000000       8.487860250000
       224    1        9.902503625000       1.414643557616       9.902503625000
       225    1        8.487860250000       2.829286605960       0.000000000000
       226    1        9.902503625000       4.243931182119       1.414643375000
       227    1        8.487860250000       2.829286605960       2.829286750000
       228    1        9.902503625000       4.243931182119       4.243930125000
       229    1        8.487860250000       2.829286605960       5.658573500000
       230    1        9.902503625000       4.243931182119       7.073216875000
       231    1        8.487860250000       2.829286605960       8.487860250000
       232    1        9.902503625000       4.243931182119       9.902503625000
       233    1        8.487860250000       5.658573211920       0.000000000000
       234    1        9.902503625000       7.073217788080       1.414643375000
       235    1        8.487860250000       5.658573211920       2.829286750000
       236    1        9.902503625000       7.073217788080       4.243930125000
       237    1        8.487860250000       5.658573211920       5.658573500000
       238    1        9.902503625000       7.073217788080       7.073216875000
       239    1        8.487860250000       5.658573211920       8.487860250000
       240    1        9.902503625000       7.073217788080       9.902503625000
       241    1        8.487860250000       8.487859817881       0.000000000000
       242    1        9.902503625000       9.902504394040       1.414643375000
       243    1        8.487860250000       8.487859817881       2.829286750000
       244    1        9.902503625000       9.902504394040       4.243930125000
       245    1        8.487860250000       8.487859817881       5.658573500000
       246    1        9.902503625000       9.902504394040       7.073216875000
       247    1        8.487860250000       8.487859817881       8.487860250000
       248    1        9.902503625000       9.902504394040       9.902503625000
       249    1        8.487860250000      11.317146423841       0.000000000000
       250    1        9.902503625000      12.731791000000       1.414643375000
       251    1        8.487860250000      11.317146423841       2.829286750000
       252    1        9.902503625000      12.731791000000       4.243930125000
       253    1        8.487860250000      11.317146423841       5.658573500000
       254    1        9.902503625000      12.731791000000       7.073216875000
       255    1        8.487860250000      11.317146423841       8.487860250000
       256    1        9.902503625000      12.731791000000       9.902503625000
       257    1        8.487860250000      17.246435576159       0.000000000000
       258    1        9.902503625000      18.661077605960       1.414643375000
       259    1        8.487860250000      17.246435576159       2.829286750000
       260    1        9.902503625000      18.661077605960       4.243930125000
       261    1        8.487860250000      17.246435576159       5.658573500000
       262    1        9.902503625000      18.661077605960       7.073216875000
       263    1        8.487860250000      17.246435576159       8.487860250000
       264    1        9.902503625000      18.661077605960       9.902503625000
       265    1        8.487860250000      20.075722182119       0.000000000000
       266    1        9.902503625000      21.490364211920       1.414643375000
       267    1        8.487860250000      20.075722182119       2.829286750000
       268    1        9.902503625000      21.490364211920       4.243930125000
       269    1        8.487860250000      20.075722182119       5.658573500000
       270    1        9.902503625000      21.490364211920       7.073216875000
       271    1        8.487860250000      20.075722182119       8.487860250000
       272    1        9.902503625000      21.490364211920       9.902503625000
       273    1        8.487860250000      22.905008788080       0.000000000000
       274    1        9.902503625000      24.319650817881       1.414643375000
       275    1        8.487860250000      22.905008788080       2.829286750000
       276    1        9.902503625000      24.319650817881       4.243930125000
       277    1        8.487860250000      22.905008788080       5.658573500000
       278    1        9.902503625000      24.319650817881       7.073216875000
       279    1        8.487860250000      22.905008788080       8.487860250000
       280    1        9.902503625000      24.319650817881       9.902503625000
       281    1        8.487860250000      25.734295394040       0.000000000000
       282    1        9.902503625000      27.148937423841       1.414643375000
       283    1        8.487860250000      25.734295394040       2.829286750000
       284    1        9.902503625000      27.148937423841       4.243930125000
       285    1        8.487860250000      25.734295394040       5.658573500000
       286    1        9.902503625000      27.148937423841       7.073216875000
       287    1        8.487860250000      25.734295394040       8.487860250000
       288    1        9.902503625000      27.148937423841       9.902503625000
