LAMMPS data file via write_data, version 29 Aug 2024, timestep = 7, units = metal

288 atoms
1 atom types

0 11.317147 xlo xhi
0 28.563582 ylo yhi
0 11.317147 zlo zhi

Masses

1 55.8

Atoms # atomic

1 1 0 0 0 0 0 0
2 1 1.414643375 1.414643557616 1.414643375 0 0 0
3 1 0 0 2.82928675 0 0 0
4 1 1.414643375 1.414643557616 4.243930125 0 0 0
9 1 0 2.82928660596 0 0 0 0
10 1 1.4146433749999936 4.229848742553298 1.414643375 0 0 0
11 1 0 2.82928660596 2.82928675 0 0 0
12 1 1.4146433749999985 4.229848742553302 4.243930124999997 0 0 0
73 1 2.82928675 0 0 0 0 0
74 1 4.243930125 1.414643557616 1.414643375 0 0 0
75 1 2.82928675 0 2.82928675 0 0 0
76 1 4.243930125 1.414643557616 4.243930125 0 0 0
81 1 2.82928675 2.82928660596 0 0 0 0
82 1 4.243930125000007 4.229848742553304 1.4146433749999971 0 0 0
83 1 2.82928675 2.82928660596 2.82928675 0 0 0
84 1 4.243930125 4.229848742553301 4.243930124999998 0 0 0
145 1 5.6585735 0 0 0 0 0
146 1 7.073216875 1.414643557616 1.414643375 0 0 0
147 1 5.6585735 0 2.82928675 0 0 0
148 1 7.073216875 1.414643557616 4.243930125 0 0 0
153 1 5.6585735 2.82928660596 0 0 0 0
154 1 7.073216874999995 4.229848742553304 1.4146433750000027 0 0 0
155 1 5.6585735 2.82928660596 2.82928675 0 0 0
156 1 7.073216875000001 4.2298487425533 4.2439301249999986 0 0 0
217 1 8.48786025 0 0 0 0 0
218 1 9.902503625 1.414643557616 1.414643375 0 0 0
219 1 8.48786025 0 2.82928675 0 0 0
220 1 9.902503625 1.414643557616 4.243930125 0 0 0
225 1 8.48786025 2.82928660596 0 0 0 0
226 1 9.902503625000001 4.229848742553301 1.4146433750000023 0 0 0
227 1 8.48786025 2.82928660596 2.82928675 0 0 0
228 1 9.902503625 4.229848742553302 4.2439301249999986 0 0 0
17 1 11.317146999999997 5.636759794313719 1.1791267513592425e-15 -1 0 0
18 1 1.414643374999997 7.044614838095951 1.4146433750000025 0 0 0
19 1 3.391952620438293e-15 5.636759794313715 2.8292867499999965 0 0 0
20 1 1.4146433750000023 7.04461483809595 4.243930124999995 0 0 0
25 1 11.317146999999999 8.451189116689694 3.895927583474207e-15 -1 0 0
27 1 3.0441248821705525e-15 8.451189116689692 2.829286749999997 0 0 0
89 1 2.8292867500000005 5.636759794313719 11.317146999999999 0 0 -1
90 1 4.243930125000001 7.044614838095949 1.414643375 0 0 0
91 1 2.8292867499999987 5.636759794313722 2.829286750000001 0 0 0
92 1 4.243930124999998 7.044614838095952 4.243930124999997 0 0 0
97 1 2.829286749999999 8.451189116689692 4.477079646169882e-16 0 0 0
99 1 2.8292867499999974 8.45118911668969 2.829286750000001 0 0 0
161 1 5.658573500000001 5.636759794313717 1.6772837322528483e-15 0 0 0
162 1 7.0732168749999955 7.04461483809595 1.4146433749999994 0 0 0
163 1 5.6585735 5.636759794313717 2.829286749999993 0 0 0
164 1 7.073216875000001 7.044614838095955 4.243930125000001 0 0 0
169 1 5.658573499999999 8.451189116689692 7.284430576499462e-16 0 0 0
171 1 5.6585735 8.45118911668969 2.8292867500000014 0 0 0
233 1 8.487860250000002 5.636759794313719 11.317146999999995 0 0 -1
234 1 9.902503625000001 7.0446148380959475 1.4146433749999965 0 0 0
235 1 8.487860249999999 5.6367597943137175 2.829286749999997 0 0 0
236 1 9.902503624999998 7.04461483809595 4.243930125000001 0 0 0
241 1 8.487860249999999 8.451189116689688 11.317146999999997 0 0 -1
243 1 8.487860249999997 8.451189116689692 2.8292867500000027 0 0 0
26 1 1.4146433749999987 9.849780739220215 1.414643375000001 0 0 0
28 1 1.414643375000003 9.849780739220215 4.243930124999994 0 0 0
33 1 0 11.2669245683708 4.393991676448492e-15 0 0 0
34 1 1.4146433749999985 12.652425294928817 1.4146433750000011 0 0 0
35 1 3.057621322940248e-15 11.2669245683708 2.8292867499999983 0 0 0
36 1 1.414643375000002 12.652425294928813 4.2439301249999986 0 0 0
98 1 4.243930124999999 9.849780739220215 1.414643375000001 0 0 0
100 1 4.2439301249999986 9.849780739220211 4.243930124999999 0 0 0
105 1 2.8292867500000023 11.2669245683708 4.405270085204786e-15 0 0 0
106 1 4.243930125000004 12.652425294928811 1.4146433750000027 0 0 0
107 1 2.82928675 11.266924568370799 2.829286750000003 0 0 0
108 1 4.243930125000002 12.652425294928817 4.243930124999997 0 0 0
170 1 7.073216874999995 9.849780739220218 1.4146433750000047 0 0 0
172 1 7.073216874999998 9.849780739220215 4.243930124999998 0 0 0
177 1 5.658573500000001 11.266924568370804 3.229140695508205e-15 0 0 0
178 1 7.073216875000003 12.652425294928811 1.414643375000006 0 0 0
179 1 5.658573500000004 11.2669245683708 2.8292867499999996 0 0 0
180 1 7.073216874999998 12.652425294928811 4.243930124999993 0 0 0
242 1 9.90250362500001 9.849780739220217 1.4146433749999963 0 0 0
244 1 9.902503625000003 9.849780739220215 4.243930125000003 0 0 0
249 1 8.487860249999999 11.266924568370806 2.21732484636246e-15 0 0 0
250 1 9.902503625000001 12.652425294928817 1.4146433749999991 0 0 0
251 1 8.487860249999995 11.266924568370802 2.8292867499999987 0 0 0
252 1 9.902503625000003 12.652425294928818 4.243930124999995 0 0 0
41 1 6.726415289534849e-15 17.323434838726232 2.8589127345938542e-15 0 0 0
42 1 1.4146433750000043 18.709065616179963 1.4146433749999965 0 0 0
43 1 0 17.323434838726232 2.829286750000001 0 0 0
44 1 1.4146433750000023 18.709065616179963 4.243930124999998 0 0 0
113 1 2.8292867500000014 17.323434838726236 1.1196826174046853e-15 0 0 0
114 1 4.243930124999996 18.70906561617996 1.4146433750000027 0 0 0
115 1 2.829286750000003 17.323434838726236 2.8292867500000027 0 0 0
116 1 4.243930125000002 18.709065616179966 4.243930124999999 0 0 0
185 1 5.658573499999999 17.32343483872623 2.3985411974148806e-15 0 0 0
186 1 7.073216874999999 18.70906561617996 1.4146433750000023 0 0 0
187 1 5.6585734999999975 17.323434838726232 2.8292867500000045 0 0 0
188 1 7.073216875000002 18.709065616179966 4.243930125000003 0 0 0
257 1 8.487860249999997 17.32343483872623 11.317146999999999 0 0 -1
258 1 9.902503625000001 18.70906561617996 1.4146433749999991 0 0 0
259 1 8.487860250000004 17.323434838726232 2.8292867500000085 0 0 0
260 1 9.902503625000001 18.70906561617997 4.243930124999998 0 0 0
49 1 2.012658198854152e-15 20.12565430694043 0 0 0 0
50 1 1.4146433750000016 21.5242528030049 1.4146433749999963 0 0 0
51 1 11.317146999999997 20.125654306940437 2.8292867499999987 -1 0 0
52 1 1.4146433749999985 21.5242528030049 4.243930125000001 0 0 0
57 1 1.182083814968656e-15 22.92933670296967 5.76499704743568e-16 0 0 0
59 1 11.317146999999999 22.92933670296967 2.8292867499999983 -1 0 0
121 1 2.8292867499999983 20.125654306940433 2.44561112121617e-15 0 0 0
122 1 4.243930124999996 21.5242528030049 1.4146433750000003 0 0 0
123 1 2.8292867500000023 20.125654306940433 2.82928675 0 0 0
124 1 4.243930125000002 21.5242528030049 4.243930124999998 0 0 0
129 1 2.829286750000001 22.929336702969668 11.317146999999999 0 0 -1
131 1 2.8292867500000005 22.929336702969675 2.829286750000002 0 0 0
193 1 5.658573500000001 20.12565430694043 0 0 0 0
194 1 7.073216875000002 21.524252803004902 1.4146433750000018 0 0 0
195 1 5.658573500000004 20.125654306940433 2.829286750000003 0 0 0
196 1 7.073216875000001 21.524252803004902 4.243930124999996 0 0 0
201 1 5.658573500000002 22.929336702969675 11.317146999999999 0 0 -1
203 1 5.6585735000000055 22.929336702969675 2.82928675 0 0 0
265 1 8.487860249999999 20.125654306940433 2.4542917581802947e-15 0 0 0
266 1 9.902503624999998 21.524252803004902 1.414643375 0 0 0
267 1 8.487860250000002 20.125654306940437 2.829286750000003 0 0 0
268 1 9.902503625 21.524252803004895 4.243930124999999 0 0 0
273 1 8.487860249999997 22.92933670296967 4.617803356914193e-16 0 0 0
275 1 8.48786025 22.92933670296967 2.829286749999998 0 0 0
58 1 1.4146433749999967 24.3284172669594 1.414643375000001 0 0 0
60 1 1.4146433750000016 24.3284172669594 4.243930125000001 0 0 0
65 1 0 25.73429539404 0 0 0 0
66 1 1.414643375 27.148937423841 1.414643375 0 0 0
67 1 0 25.73429539404 2.82928675 0 0 0
68 1 1.414643375 27.148937423841 4.243930125 0 0 0
130 1 4.243930125 24.328417266959402 1.414643375 0 0 0
132 1 4.243930125000001 24.328417266959402 4.243930125000002 0 0 0
137 1 2.82928675 25.73429539404 0 0 0 0
138 1 4.243930125 27.148937423841 1.414643375 0 0 0
139 1 2.82928675 25.73429539404 2.82928675 0 0 0
140 1 4.243930125 27.148937423841 4.243930125 0 0 0
202 1 7.073216875000002 24.3284172669594 1.414643375 0 0 0
204 1 7.073216874999998 24.328417266959402 4.243930125000001 0 0 0
209 1 5.6585735 25.73429539404 0 0 0 0
210 1 7.073216875 27.148937423841 1.414643375 0 0 0
211 1 5.6585735 25.73429539404 2.82928675 0 0 0
212 1 7.073216875 27.148937423841 4.243930125 0 0 0
274 1 9.902503624999998 24.328417266959402 1.414643375000002 0 0 0
276 1 9.902503625 24.328417266959406 4.243930125000001 0 0 0
281 1 8.48786025 25.73429539404 0 0 0 0
282 1 9.902503625 27.148937423841 1.414643375 0 0 0
283 1 8.48786025 25.73429539404 2.82928675 0 0 0
284 1 9.902503625 27.148937423841 4.243930125 0 0 0
5 1 0 0 5.6585735 0 0 0
6 1 1.414643375 1.414643557616 7.073216875 0 0 0
7 1 0 0 8.48786025 0 0 0
8 1 1.414643375 1.414643557616 9.902503625 0 0 0
13 1 0 2.82928660596 5.6585735 0 0 0
14 1 1.4146433749999987 4.2298487425533 7.073216875000001 0 0 0
15 1 0 2.82928660596 8.48786025 0 0 0
16 1 1.414643374999998 4.229848742553298 9.902503624999998 0 0 0
77 1 2.82928675 0 5.6585735 0 0 0
78 1 4.243930125 1.414643557616 7.073216875 0 0 0
79 1 2.82928675 0 8.48786025 0 0 0
80 1 4.243930125 1.414643557616 9.902503625 0 0 0
85 1 2.82928675 2.82928660596 5.6585735 0 0 0
86 1 4.243930125000001 4.2298487425533 7.073216875000003 0 0 0
87 1 2.82928675 2.82928660596 8.48786025 0 0 0
88 1 4.243930125000002 4.2298487425533 9.902503625 0 0 0
149 1 5.6585735 0 5.6585735 0 0 0
150 1 7.073216875 1.414643557616 7.073216875 0 0 0
151 1 5.6585735 0 8.48786025 0 0 0
152 1 7.073216875 1.414643557616 9.902503625 0 0 0
157 1 5.6585735 2.82928660596 5.6585735 0 0 0
158 1 7.073216874999999 4.229848742553303 7.073216875000006 0 0 0
159 1 5.6585735 2.82928660596 8.48786025 0 0 0
160 1 7.073216874999999 4.229848742553304 9.902503624999998 0 0 0
221 1 8.48786025 0 5.6585735 0 0 0
222 1 9.902503625 1.414643557616 7.073216875 0 0 0
223 1 8.48786025 0 8.48786025 0 0 0
224 1 9.902503625 1.414643557616 9.902503625 0 0 0
229 1 8.48786025 2.82928660596 5.6585735 0 0 0
230 1 9.902503625000001 4.229848742553305 7.073216875000001 0 0 0
231 1 8.48786025 2.82928660596 8.48786025 0 0 0
232 1 9.902503625 4.229848742553304 9.902503625000001 0 0 0
21 1 11.317146999999999 5.636759794313717 5.658573499999998 -1 0 0
22 1 1.4146433750000003 7.044614838095946 7.073216875000006 0 0 0
23 1 1.3397261887397987e-15 5.636759794313715 8.48786025 0 0 0
24 1 1.4146433750000036 7.044614838095952 9.902503625000001 0 0 0
29 1 11.317146999999999 8.451189116689694 5.6585734999999975 -1 0 0
31 1 0 8.451189116689694 8.48786025 0 0 0
93 1 2.8292867500000036 5.636759794313723 5.6585734999999975 0 0 0
94 1 4.243930124999997 7.04461483809595 7.073216874999999 0 0 0
95 1 2.82928675 5.636759794313723 8.487860249999999 0 0 0
96 1 4.243930124999998 7.044614838095952 9.902503625000001 0 0 0
101 1 2.8292867500000054 8.451189116689688 5.658573499999995 0 0 0
103 1 2.82928675 8.45118911668969 8.487860250000006 0 0 0
165 1 5.658573499999999 5.6367597943137175 5.6585735 0 0 0
166 1 7.0732168750000035 7.044614838095953 7.073216875000002 0 0 0
167 1 5.658573500000001 5.636759794313713 8.48786025 0 0 0
168 1 7.073216875000003 7.044614838095951 9.902503625000003 0 0 0
173 1 5.6585734999999975 8.451189116689692 5.658573500000001 0 0 0
175 1 5.658573500000003 8.451189116689696 8.48786025 0 0 0
237 1 8.487860250000002 5.6367597943137175 5.658573500000001 0 0 0
238 1 9.902503625 7.04461483809595 7.0732168750000035 0 0 0
239 1 8.48786025 5.6367597943137175 8.487860250000002 0 0 0
240 1 9.902503624999996 7.044614838095947 9.902503625000001 0 0 0
245 1 8.487860250000002 8.451189116689687 5.6585735 0 0 0
247 1 8.487860249999999 8.45118911668969 8.48786025 0 0 0
30 1 1.4146433749999983 9.84978073922022 7.073216875000002 0 0 0
32 1 1.414643375000002 9.849780739220218 9.902503625000001 0 0 0
37 1 1.7620394117753889e-15 11.266924568370802 5.6585735 0 0 0
38 1 1.4146433750000023 12.652425294928815 7.073216874999998 0 0 0
39 1 1.6374378973802937e-15 11.2669245683708 8.487860249999995 0 0 0
40 1 1.4146433749999994 12.652425294928817 9.902503625000003 0 0 0
102 1 4.243930125000002 9.84978073922022 7.073216875000001 0 0 0
104 1 4.243930124999998 9.849780739220215 9.902503625000001 0 0 0
109 1 2.82928675 11.266924568370804 5.6585734999999975 0 0 0
110 1 4.243930124999999 12.652425294928813 7.073216874999999 0 0 0
111 1 2.8292867500000005 11.266924568370799 8.48786025 0 0 0
112 1 4.243930124999998 12.652425294928815 9.902503625000003 0 0 0
174 1 7.073216874999997 9.849780739220217 7.0732168750000035 0 0 0
176 1 7.073216874999998 9.849780739220215 9.902503625000001 0 0 0
181 1 5.6585735 11.266924568370804 5.658573500000003 0 0 0
182 1 7.073216874999998 12.652425294928817 7.073216875000001 0 0 0
183 1 5.658573499999999 11.266924568370804 8.487860249999997 0 0 0
184 1 7.073216874999997 12.652425294928817 9.902503624999998 0 0 0
246 1 9.902503625000003 9.849780739220215 7.073216874999998 0 0 0
248 1 9.902503625000001 9.849780739220215 9.902503625000003 0 0 0
253 1 8.48786025 11.266924568370804 5.658573499999997 0 0 0
254 1 9.902503625000003 12.652425294928815 7.073216875 0 0 0
255 1 8.487860249999997 11.266924568370804 8.48786025 0 0 0
256 1 9.902503625000003 12.652425294928817 9.902503625 0 0 0
45 1 5.430131580606949e-16 17.323434838726232 5.6585735 0 0 0
46 1 1.414643375000001 18.70906561617996 7.073216875000003 0 0 0
47 1 11.317146999999999 17.323434838726232 8.487860249999997 -1 0 0
48 1 1.414643374999998 18.70906561617996 9.902503625 0 0 0
117 1 2.8292867500000005 17.323434838726232 5.658573499999997 0 0 0
118 1 4.243930124999998 18.709065616179966 7.0732168750000035 0 0 0
119 1 2.8292867500000036 17.323434838726232 8.487860249999999 0 0 0
120 1 4.243930125 18.709065616179963 9.902503624999998 0 0 0
189 1 5.658573499999999 17.32343483872623 5.658573499999998 0 0 0
190 1 7.073216874999999 18.709065616179963 7.073216874999998 0 0 0
191 1 5.658573499999997 17.323434838726232 8.487860249999997 0 0 0
192 1 7.073216874999997 18.70906561617996 9.902503624999998 0 0 0
261 1 8.487860250000002 17.323434838726232 5.658573500000003 0 0 0
262 1 9.902503625 18.709065616179963 7.073216875000002 0 0 0
263 1 8.487860249999995 17.323434838726236 8.487860249999995 0 0 0
264 1 9.902503625000003 18.70906561617996 9.902503624999998 0 0 0
53 1 11.317146999999999 20.125654306940437 5.6585735 -1 0 0
54 1 1.4146433750000027 21.524252803004902 7.073216875000001 0 0 0
55 1 11.317146999999999 20.12565430694043 8.487860250000002 -1 0 0
56 1 1.4146433750000005 21.524252803004902 9.902503625000005 0 0 0
61 1 8.798672337930392e-16 22.92933670296967 5.6585735 0 0 0
63 1 11.317146999999999 22.929336702969678 8.48786025 -1 0 0
125 1 2.8292867499999996 20.125654306940437 5.658573500000002 0 0 0
126 1 4.243930125000001 21.524252803004895 7.073216875000003 0 0 0
127 1 2.8292867500000027 20.12565430694043 8.487860249999999 0 0 0
128 1 4.243930125000002 21.5242528030049 9.902503625 0 0 0
133 1 2.8292867499999987 22.929336702969675 5.658573500000002 0 0 0
135 1 2.829286749999999 22.92933670296967 8.48786025 0 0 0
197 1 5.658573500000001 20.125654306940433 5.658573500000005 0 0 0
198 1 7.073216875000002 21.5242528030049 7.073216875000002 0 0 0
199 1 5.658573499999996 20.12565430694043 8.487860249999999 0 0 0
200 1 7.073216875000001 21.524252803004906 9.902503625000001 0 0 0
205 1 5.658573500000003 22.929336702969678 5.658573500000001 0 0 0
207 1 5.658573500000005 22.92933670296967 8.487860250000002 0 0 0
269 1 8.487860250000002 20.125654306940437 5.658573499999998 0 0 0
270 1 9.902503625 21.524252803004902 7.073216875 0 0 0
271 1 8.487860250000002 20.12565430694043 8.487860249999999 0 0 0
272 1 9.902503624999996 21.524252803004895 9.902503625 0 0 0
277 1 8.487860249999997 22.92933670296967 5.658573500000003 0 0 0
279 1 8.487860249999999 22.929336702969675 8.487860250000002 0 0 0
62 1 1.414643375 24.328417266959395 7.073216874999996 0 0 0
64 1 1.4146433749999991 24.328417266959395 9.902503625000003 0 0 0
69 1 0 25.73429539404 5.6585735 0 0 0
70 1 1.414643375 27.148937423841 7.073216875 0 0 0
71 1 0 25.73429539404 8.48786025 0 0 0
72 1 1.414643375 27.148937423841 9.902503625 0 0 0
134 1 4.243930125000001 24.328417266959402 7.073216874999997 0 0 0
136 1 4.243930125000005 24.328417266959402 9.902503625000003 0 0 0
141 1 2.82928675 25.73429539404 5.6585735 0 0 0
142 1 4.243930125 27.148937423841 7.073216875 0 0 0
143 1 2.82928675 25.73429539404 8.48786025 0 0 0
144 1 4.243930125 27.148937423841 9.902503625 0 0 0
206 1 7.073216874999999 24.3284172669594 7.073216874999999 0 0 0
208 1 7.073216875000001 24.3284172669594 9.902503625000001 0 0 0
213 1 5.6585735 25.73429539404 5.6585735 0 0 0
214 1 7.073216875 27.148937423841 7.073216875 0 0 0
215 1 5.6585735 25.73429539404 8.48786025 0 0 0
216 1 7.073216875 27.148937423841 9.902503625 0 0 0
278 1 9.902503625000001 24.3284172669594 7.073216875000001 0 0 0
280 1 9.902503624999996 24.3284172669594 9.902503625 0 0 0
285 1 8.48786025 25.73429539404 5.6585735 0 0 0
286 1 9.902503625 27.148937423841 7.073216875 0 0 0
287 1 8.48786025 25.73429539404 8.48786025 0 0 0
288 1 9.902503625 27.148937423841 9.902503625 0 0 0

Velocities

1 0 0 0
2 0 0 0
3 0 0 0
4 0 0 0
9 0 0 0
10 0 0 0
11 0 0 0
12 0 0 0
73 0 0 0
74 0 0 0
75 0 0 0
76 0 0 0
81 0 0 0
82 0 0 0
83 0 0 0
84 0 0 0
145 0 0 0
146 0 0 0
147 0 0 0
148 0 0 0
153 0 0 0
154 0 0 0
155 0 0 0
156 0 0 0
217 0 0 0
218 0 0 0
219 0 0 0
220 0 0 0
225 0 0 0
226 0 0 0
227 0 0 0
228 0 0 0
17 0 0 0
18 0 0 0
19 0 0 0
20 0 0 0
25 0 0 0
27 0 0 0
89 0 0 0
90 0 0 0
91 0 0 0
92 0 0 0
97 0 0 0
99 0 0 0
161 0 0 0
162 0 0 0
163 0 0 0
164 0 0 0
169 0 0 0
171 0 0 0
233 0 0 0
234 0 0 0
235 0 0 0
236 0 0 0
241 0 0 0
243 0 0 0
26 0 0 0
28 0 0 0
33 0 0 0
34 0 0 0
35 0 0 0
36 0 0 0
98 0 0 0
100 0 0 0
105 0 0 0
106 0 0 0
107 0 0 0
108 0 0 0
170 0 0 0
172 0 0 0
177 0 0 0
178 0 0 0
179 0 0 0
180 0 0 0
242 0 0 0
244 0 0 0
249 0 0 0
250 0 0 0
251 0 0 0
252 0 0 0
41 0 0 0
42 0 0 0
43 0 0 0
44 0 0 0
113 0 0 0
114 0 0 0
115 0 0 0
116 0 0 0
185 0 0 0
186 0 0 0
187 0 0 0
188 0 0 0
257 0 0 0
258 0 0 0
259 0 0 0
260 0 0 0
49 0 0 0
50 0 0 0
51 0 0 0
52 0 0 0
57 0 0 0
59 0 0 0
121 0 0 0
122 0 0 0
123 0 0 0
124 0 0 0
129 0 0 0
131 0 0 0
193 0 0 0
194 0 0 0
195 0 0 0
196 0 0 0
201 0 0 0
203 0 0 0
265 0 0 0
266 0 0 0
267 0 0 0
268 0 0 0
273 0 0 0
275 0 0 0
58 0 0 0
60 0 0 0
65 0 0 0
66 0 0 0
67 0 0 0
68 0 0 0
130 0 0 0
132 0 0 0
137 0 0 0
138 0 0 0
139 0 0 0
140 0 0 0
202 0 0 0
204 0 0 0
209 0 0 0
210 0 0 0
211 0 0 0
212 0 0 0
274 0 0 0
276 0 0 0
281 0 0 0
282 0 0 0
283 0 0 0
284 0 0 0
5 0 0 0
6 0 0 0
7 0 0 0
8 0 0 0
13 0 0 0
14 0 0 0
15 0 0 0
16 0 0 0
77 0 0 0
78 0 0 0
79 0 0 0
80 0 0 0
85 0 0 0
86 0 0 0
87 0 0 0
88 0 0 0
149 0 0 0
150 0 0 0
151 0 0 0
152 0 0 0
157 0 0 0
158 0 0 0
159 0 0 0
160 0 0 0
221 0 0 0
222 0 0 0
223 0 0 0
224 0 0 0
229 0 0 0
230 0 0 0
231 0 0 0
232 0 0 0
21 0 0 0
22 0 0 0
23 0 0 0
24 0 0 0
29 0 0 0
31 0 0 0
93 0 0 0
94 0 0 0
95 0 0 0
96 0 0 0
101 0 0 0
103 0 0 0
165 0 0 0
166 0 0 0
167 0 0 0
168 0 0 0
173 0 0 0
175 0 0 0
237 0 0 0
238 0 0 0
239 0 0 0
240 0 0 0
245 0 0 0
247 0 0 0
30 0 0 0
32 0 0 0
37 0 0 0
38 0 0 0
39 0 0 0
40 0 0 0
102 0 0 0
104 0 0 0
109 0 0 0
110 0 0 0
111 0 0 0
112 0 0 0
174 0 0 0
176 0 0 0
181 0 0 0
182 0 0 0
183 0 0 0
184 0 0 0
246 0 0 0
248 0 0 0
253 0 0 0
254 0 0 0
255 0 0 0
256 0 0 0
45 0 0 0
46 0 0 0
47 0 0 0
48 0 0 0
117 0 0 0
118 0 0 0
119 0 0 0
120 0 0 0
189 0 0 0
190 0 0 0
191 0 0 0
192 0 0 0
261 0 0 0
262 0 0 0
263 0 0 0
264 0 0 0
53 0 0 0
54 0 0 0
55 0 0 0
56 0 0 0
61 0 0 0
63 0 0 0
125 0 0 0
126 0 0 0
127 0 0 0
128 0 0 0
133 0 0 0
135 0 0 0
197 0 0 0
198 0 0 0
199 0 0 0
200 0 0 0
205 0 0 0
207 0 0 0
269 0 0 0
270 0 0 0
271 0 0 0
272 0 0 0
277 0 0 0
279 0 0 0
62 0 0 0
64 0 0 0
69 0 0 0
70 0 0 0
71 0 0 0
72 0 0 0
134 0 0 0
136 0 0 0
141 0 0 0
142 0 0 0
143 0 0 0
144 0 0 0
206 0 0 0
208 0 0 0
213 0 0 0
214 0 0 0
215 0 0 0
216 0 0 0
278 0 0 0
280 0 0 0
285 0 0 0
286 0 0 0
287 0 0 0
288 0 0 0
