 # File generated with Atomsk by user on 2025-06-01 00:53:14
  
         240  atoms
           1  atom types
 
      0.000000000000      13.982845730000  xlo xhi
      0.000000000000      29.618412580000  ylo yhi
      0.000000000000       8.072999750000  zlo zhi
 
Masses
 
            1   1.00800000              # H
 
Atoms # atomic
 
         1    1       11.591257689853       3.240284549262       4.001215860833
         2    1        1.104123392353      26.162058453958       6.019465798333
         3    1        6.930309159796       9.768560925617       4.001215860833
         4    1        3.434597727296      29.510377791610       6.019465798333
         5    1        5.765071922410       6.484749476459       1.982965923333
         6    1       12.756494787410      25.378169368227       6.019465798333
         7    1       12.756494787410       4.024173634992       6.019465798333
         8    1        5.765071922410      27.890681807918       1.982965923333
         9    1       12.756494787410      18.237515578037       1.982965923333
        10    1        9.260783354910      25.378169368227       4.001215860833
        11    1       10.426020592296       2.374575787602       6.019465798333
        12    1        3.434597727296       4.841788522847       1.982965923333
        13    1        2.269360489910      27.890681807918       8.037715735833
        14    1        1.104123392353       0.978309288037       6.019465798333
        15    1       10.426020592296      24.560554233188       6.019465798333
        16    1        8.095546257353       3.240284549262       6.019465798333
        17    1        3.434597727296      27.027767215617       1.982965923333
        18    1       11.591257689853      26.162058453958       4.001215860833
        19    1        1.104123392353       5.658386989576       1.982965923333
        20    1        2.269360489910       1.511660948117       4.001215860833
        21    1        9.260783354910       4.024173634992       4.001215860833
        22    1        4.599834824853      28.424033467998       8.037715735833
        23    1        6.930309159796      24.560554233188       4.001215860833
        24    1        9.260783354910      18.237515578037       8.037715735833
        25    1        6.930309159796       2.374575787602       4.001215860833
        26    1       13.921732024796      27.027767215617       8.037715735833
        27    1        8.095546257353      26.162058453958       6.019465798333
        28    1        2.269360489910       6.484749476459       8.037715735833
        29    1       13.921732024796      29.510377791610       4.001215860833
        30    1        1.104123392353      28.424033467998       1.982965923333
        31    1        4.599834824853       5.658386989576       8.037715735833
        32    1       13.921732024796       4.841788522847       8.037715735833
        33    1       11.591257689853       0.978309288037       4.001215860833
        34    1       10.426020592296      12.251171501610       1.982965923333
        35    1       11.591257689853       5.658386989576       8.037715735833
        36    1       12.756494787410       1.511660948117       6.019465798333
        37    1       10.426020592296      29.510377791610       6.019465798333
        38    1       12.756494787410       6.484749476459       1.982965923333
        39    1       11.591257689853      18.770867238117       8.037715735833
        40    1        6.930309159796      12.251171501610       8.037715735833
        41    1        8.095546257353      18.770867238117       1.982965923333
        42    1       12.756494787410      20.499490839262       6.019465798333
        43    1        9.260783354910      20.499490839262       4.001215860833
        44    1       10.426020592296      19.633782077602       6.019465798333
        45    1       11.591257689853      21.283379924992       4.001215860833
        46    1        6.930309159796      19.633782077602       4.001215860833
        47    1        8.095546257353      21.283379924992       6.019465798333
        48    1        8.095546257353      10.631475517918       1.982965923333
        49    1        9.260783354910      11.164827177998       8.037715735833
        50    1        6.930309159796       9.768560925617       8.037715735833
        51    1        4.599834824853      10.631475517918       4.001215860833
        52    1        5.765071922410      11.164827177998       6.019465798333
        53    1        3.434597727296       9.768560925617       6.019465798333
        54    1        1.104123392353      10.631475517918       6.019465798333
        55    1        4.599834824853      26.162058453958       8.037715735833
        56    1       13.921732024796      24.560554233188       8.037715735833
        57    1        1.104123392353      26.162058453958       1.982965923333
        58    1       12.756494787410      25.378169368227       1.982965923333
        59    1        9.260783354910      25.378169368227       8.037715735833
        60    1       10.426020592296      24.560554233188       1.982965923333
        61    1       11.591257689853      26.162058453958       8.037715735833
        62    1        5.765071922410      18.237515578037       6.019465798333
        63    1        2.269360489910      18.237515578037       4.001215860833
        64    1        3.434597727296      12.251171501610       6.019465798333
        65    1        4.599834824853      18.770867238117       4.001215860833
        66    1       13.921732024796      12.251171501610       4.001215860833
        67    1        1.104123392353      18.770867238117       6.019465798333
        68    1       10.426020592296       4.841788522847       1.982965923333
        69    1        8.095546257353       5.658386989576       1.982965923333
        70    1        9.260783354910       6.484749476459       8.037715735833
        71    1        6.930309159796       4.841788522847       8.037715735833
        72    1        4.599834824853       5.658386989576       4.001215860833
        73    1        5.765071922410       6.484749476459       6.019465798333
        74    1        3.434597727296       4.841788522847       6.019465798333
        75    1        1.104123392353       5.658386989576       6.019465798333
        76    1        2.269360489910       6.484749476459       4.001215860833
        77    1       13.921732024796       4.841788522847       4.001215860833
        78    1       11.591257689853       5.658386989576       4.001215860833
        79    1       12.756494787410       6.484749476459       6.019465798333
        80    1       10.426020592296       4.841788522847       6.019465798333
        81    1        8.095546257353       5.658386989576       6.019465798333
        82    1       12.756494787410      22.917593279576       6.019465798333
        83    1        9.260783354910      22.917593279576       4.001215860833
        84    1       10.426020592296      22.100994812847       6.019465798333
        85    1       11.591257689853      23.743955766459       4.001215860833
        86    1        6.930309159796      22.100994812847       4.001215860833
        87    1        8.095546257353      23.743955766459       6.019465798333
        88    1        5.765071922410      20.499490839262       1.982965923333
        89    1        2.269360489910      20.499490839262       8.037715735833
        90    1        3.434597727296      19.633782077602       1.982965923333
        91    1        4.599834824853      21.283379924992       8.037715735833
        92    1       13.921732024796      19.633782077602       8.037715735833
        93    1        1.104123392353      21.283379924992       1.982965923333
        94    1       12.756494787410      18.237515578037       6.019465798333
        95    1        9.260783354910      18.237515578037       4.001215860833
        96    1       10.426020592296      12.251171501610       6.019465798333
        97    1       11.591257689853      18.770867238117       4.001215860833
        98    1        6.930309159796      12.251171501610       4.001215860833
        99    1        8.095546257353      18.770867238117       6.019465798333
       100    1       12.756494787410      20.499490839262       1.982965923333
       101    1        9.260783354910      20.499490839262       8.037715735833
       102    1       10.426020592296      19.633782077602       1.982965923333
       103    1       11.591257689853      21.283379924992       8.037715735833
       104    1        6.930309159796      19.633782077602       8.037715735833
       105    1        8.095546257353      21.283379924992       1.982965923333
       106    1        4.599834824853       8.118963078227       4.001215860833
       107    1        5.765071922410       8.902852163958       6.019465798333
       108    1        3.434597727296       7.301347943188       6.019465798333
       109    1        1.104123392353       8.118963078227       6.019465798333
       110    1        2.269360489910       8.902852163958       4.001215860833
       111    1       13.921732024796       7.301347943188       4.001215860833
       112    1       11.591257689853       8.118963078227       4.001215860833
       113    1        5.765071922410      22.917593279576       1.982965923333
       114    1        2.269360489910      22.917593279576       8.037715735833
       115    1        3.434597727296      22.100994812847       1.982965923333
       116    1        4.599834824853      23.743955766459       8.037715735833
       117    1       13.921732024796      22.100994812847       8.037715735833
       118    1        1.104123392353      23.743955766459       1.982965923333
       119    1        2.269360489910       4.024173634992       8.037715735833
       120    1       13.921732024796       2.374575787602       8.037715735833
       121    1       11.591257689853       3.240284549262       8.037715735833
       122    1       12.756494787410       4.024173634992       1.982965923333
       123    1       10.426020592296       2.374575787602       1.982965923333
       124    1        8.095546257353       3.240284549262       1.982965923333
       125    1        9.260783354910       4.024173634992       8.037715735833
       126    1       13.921732024796       7.301347943188       8.037715735833
       127    1       11.591257689853       8.118963078227       8.037715735833
       128    1       12.756494787410       8.902852163958       1.982965923333
       129    1       10.426020592296       7.301347943188       1.982965923333
       130    1        8.095546257353       8.118963078227       1.982965923333
       131    1        9.260783354910       8.902852163958       8.037715735833
       132    1        6.930309159796       7.301347943188       8.037715735833
       133    1        5.765071922410      22.917593279576       6.019465798333
       134    1        2.269360489910      22.917593279576       4.001215860833
       135    1        3.434597727296      22.100994812847       6.019465798333
       136    1        4.599834824853      23.743955766459       4.001215860833
       137    1       13.921732024796      22.100994812847       4.001215860833
       138    1        1.104123392353      23.743955766459       6.019465798333
       139    1        2.269360489910      27.890681807918       4.001215860833
       140    1        3.434597727296      27.027767215617       6.019465798333
       141    1        4.599834824853      28.424033467998       4.001215860833
       142    1       13.921732024796      27.027767215617       4.001215860833
       143    1        1.104123392353      28.424033467998       6.019465798333
       144    1       12.756494787410      27.890681807918       6.019465798333
       145    1        9.260783354910      27.890681807918       4.001215860833
       146    1       12.756494787410      22.917593279576       1.982965923333
       147    1        9.260783354910      22.917593279576       8.037715735833
       148    1       10.426020592296      22.100994812847       1.982965923333
       149    1       11.591257689853      23.743955766459       8.037715735833
       150    1        6.930309159796      22.100994812847       8.037715735833
       151    1        8.095546257353      23.743955766459       1.982965923333
       152    1        3.434597727296       9.768560925617       1.982965923333
       153    1        1.104123392353      10.631475517918       1.982965923333
       154    1        2.269360489910      11.164827177998       8.037715735833
       155    1       13.921732024796       9.768560925617       8.037715735833
       156    1       11.591257689853      10.631475517918       8.037715735833
       157    1       12.756494787410      11.164827177998       1.982965923333
       158    1       10.426020592296       9.768560925617       1.982965923333
       159    1        8.095546257353       0.978309288037       6.019465798333
       160    1        9.260783354910       1.511660948117       4.001215860833
       161    1        6.930309159796      29.510377791610       4.001215860833
       162    1        4.599834824853       3.240284549262       8.037715735833
       163    1        5.765071922410       4.024173634992       1.982965923333
       164    1        3.434597727296       2.374575787602       1.982965923333
       165    1        1.104123392353       3.240284549262       1.982965923333
       166    1       12.756494787410       1.511660948117       1.982965923333
       167    1       10.426020592296      29.510377791610       1.982965923333
       168    1        8.095546257353       0.978309288037       1.982965923333
       169    1        9.260783354910       1.511660948117       8.037715735833
       170    1        6.930309159796      29.510377791610       8.037715735833
       171    1        4.599834824853       0.978309288037       4.001215860833
       172    1        5.765071922410       1.511660948117       6.019465798333
       173    1        5.765071922410      20.499490839262       6.019465798333
       174    1        2.269360489910      20.499490839262       4.001215860833
       175    1        3.434597727296      19.633782077602       6.019465798333
       176    1        4.599834824853      21.283379924992       4.001215860833
       177    1        2.269360489910      11.164827177998       4.001215860833
       178    1       13.921732024796      19.633782077602       4.001215860833
       179    1       13.921732024796       9.768560925617       4.001215860833
       180    1        1.104123392353      21.283379924992       6.019465798333
       181    1       11.591257689853      10.631475517918       4.001215860833
       182    1       12.756494787410      11.164827177998       6.019465798333
       183    1       10.426020592296       9.768560925617       6.019465798333
       184    1        8.095546257353      10.631475517918       6.019465798333
       185    1        9.260783354910      11.164827177998       4.001215860833
       186    1       12.756494787410       8.902852163958       6.019465798333
       187    1       10.426020592296       7.301347943188       6.019465798333
       188    1        8.095546257353       8.118963078227       6.019465798333
       189    1        9.260783354910       8.902852163958       4.001215860833
       190    1        6.930309159796       7.301347943188       4.001215860833
       191    1        4.599834824853      10.631475517918       8.037715735833
       192    1        5.765071922410      11.164827177998       1.982965923333
       193    1        5.765071922410      18.237515578037       1.982965923333
       194    1        2.269360489910      18.237515578037       8.037715735833
       195    1        3.434597727296      12.251171501610       1.982965923333
       196    1        4.599834824853      18.770867238117       8.037715735833
       197    1       13.921732024796      12.251171501610       8.037715735833
       198    1        1.104123392353      18.770867238117       1.982965923333
       199    1        9.260783354910       6.484749476459       4.001215860833
       200    1        6.930309159796       4.841788522847       4.001215860833
       201    1        4.599834824853       8.118963078227       8.037715735833
       202    1        5.765071922410       8.902852163958       1.982965923333
       203    1        3.434597727296       7.301347943188       1.982965923333
       204    1        1.104123392353       8.118963078227       1.982965923333
       205    1        2.269360489910       8.902852163958       8.037715735833
       206    1        6.930309159796       2.374575787602       8.037715735833
       207    1        4.599834824853       3.240284549262       4.001215860833
       208    1        5.765071922410       4.024173634992       6.019465798333
       209    1        3.434597727296       2.374575787602       6.019465798333
       210    1        1.104123392353       3.240284549262       6.019465798333
       211    1        2.269360489910       4.024173634992       4.001215860833
       212    1       10.426020592296      27.027767215617       6.019465798333
       213    1       13.921732024796       2.374575787602       4.001215860833
       214    1       11.591257689853      28.424033467998       4.001215860833
       215    1        6.930309159796      27.027767215617       4.001215860833
       216    1        8.095546257353      28.424033467998       6.019465798333
       217    1        6.930309159796      24.560554233188       8.037715735833
       218    1        5.765071922410      25.378169368227       1.982965923333
       219    1        8.095546257353      26.162058453958       1.982965923333
       220    1        2.269360489910      25.378169368227       8.037715735833
       221    1        5.765071922410      25.378169368227       6.019465798333
       222    1        3.434597727296      24.560554233188       1.982965923333
       223    1        2.269360489910      25.378169368227       4.001215860833
       224    1        3.434597727296      24.560554233188       6.019465798333
       225    1        4.599834824853      26.162058453958       4.001215860833
       226    1       13.921732024796      24.560554233188       4.001215860833
       227    1        4.599834824853       0.978309288037       8.037715735833
       228    1        5.765071922410       1.511660948117       1.982965923333
       229    1        3.434597727296      29.510377791610       1.982965923333
       230    1        1.104123392353       0.978309288037       1.982965923333
       231    1        2.269360489910       1.511660948117       8.037715735833
       232    1       13.921732024796      29.510377791610       8.037715735833
       233    1       11.591257689853       0.978309288037       8.037715735833
       234    1       12.756494787410      27.890681807918       1.982965923333
       235    1        9.260783354910      27.890681807918       8.037715735833
       236    1       10.426020592296      27.027767215617       1.982965923333
       237    1       11.591257689853      28.424033467998       8.037715735833
       238    1        6.930309159796      27.027767215617       8.037715735833
       239    1        8.095546257353      28.424033467998       1.982965923333
       240    1        5.765071922410      27.890681807918       6.019465798333
