LAMMPS data file via write_data, version 29 Aug 2024, timestep = 5, units = metal

240 atoms
1 atom types

0 13.98284573 xlo xhi
0 29.31841258 ylo yhi
0 8.07299975 zlo zhi

Masses

1 55.8

Atoms # atomic

12 1 3.4345976827661864 4.867020543783743 1.9829659233330015 0 0 0
14 1 1.104123392353 0.978309288037 6.019465798333 0 0 0
20 1 2.26936048991 1.511660948117 4.001215860833 0 0 0
74 1 3.4345976827661913 4.867020543783745 6.019465798332998 0 0 0
119 1 2.269360540026417 4.035356541649517 8.037715735833 0 0 0
162 1 4.599834824853 3.240284549262 8.037715735833 0 0 0
164 1 3.434597727296 2.374575787602 1.982965923333 0 0 0
165 1 1.104123392353 3.240284549262 1.982965923333 0 0 0
171 1 4.599834824853 0.978309288037 4.001215860833 0 0 0
207 1 4.599834824853 3.240284549262 4.001215860833 0 0 0
209 1 3.434597727296 2.374575787602 6.019465798333 0 0 0
210 1 1.104123392353 3.240284549262 6.019465798333 0 0 0
211 1 2.2693605400264176 4.0353565416495165 4.001215860833 0 0 0
227 1 4.599834824853 0.978309288037 8.037715735833 0 0 0
230 1 1.104123392353 0.978309288037 1.982965923333 0 0 0
231 1 2.26936048991 1.511660948117 8.037715735833 0 0 0
16 1 8.095546257353 3.240284549262 6.019465798333 0 0 0
21 1 9.260783405026418 4.035356541649515 4.0012158608330015 0 0 0
25 1 6.930309159796 2.374575787602 4.001215860833 0 0 0
71 1 6.93030911526619 4.867020543783741 8.037715735832998 0 0 0
124 1 8.095546257353 3.240284549262 1.982965923333 0 0 0
125 1 9.260783405026416 4.035356541649514 8.037715735833 0 0 0
159 1 8.095546257353 0.978309288037 6.019465798333 0 0 0
160 1 9.26078335491 1.511660948117 4.001215860833 0 0 0
163 1 5.765071972526419 4.0353565416495165 1.9829659233330013 0 0 0
168 1 8.095546257353 0.978309288037 1.982965923333 0 0 0
169 1 9.26078335491 1.511660948117 8.037715735833 0 0 0
172 1 5.76507192241 1.511660948117 6.019465798333 0 0 0
200 1 6.930309115266188 4.867020543783744 4.0012158608330015 0 0 0
206 1 6.930309159796 2.374575787602 8.037715735833 0 0 0
208 1 5.76507197252642 4.035356541649519 6.019465798332998 0 0 0
228 1 5.76507192241 1.511660948117 1.982965923333 0 0 0
1 1 11.591257689853 3.240284549262 4.001215860833 0 0 0
7 1 12.75649483752642 4.035356541649518 6.019465798332998 0 0 0
11 1 10.426020592296 2.374575787602 6.019465798333 0 0 0
32 1 13.92173198026619 4.867020543783738 8.037715735832998 0 0 0
33 1 11.591257689853 0.978309288037 4.001215860833 0 0 0
36 1 12.75649478741 1.511660948117 6.019465798333 0 0 0
68 1 10.426020547766187 4.86702054378374 1.9829659233330008 0 0 0
77 1 13.921731980266188 4.867020543783743 4.001215860833 0 0 0
80 1 10.426020547766186 4.867020543783744 6.019465798333001 0 0 0
120 1 13.921732024796 2.374575787602 8.037715735833 0 0 0
121 1 11.591257689853 3.240284549262 8.037715735833 0 0 0
122 1 12.75649483752642 4.035356541649515 1.982965923333002 0 0 0
123 1 10.426020592296 2.374575787602 1.982965923333 0 0 0
166 1 12.75649478741 1.511660948117 1.982965923333 0 0 0
213 1 13.921732024796 2.374575787602 4.001215860833 0 0 0
233 1 11.591257689853 0.978309288037 8.037715735833 0 0 0
19 1 1.104123393503582 5.670551238475354 1.9829659233330028 0 0 0
28 1 2.2693605369357948 6.484070623296904 8.037715735832998 0 0 0
31 1 4.59983482600358 5.670551238475357 8.037715735832998 0 0 0
53 1 3.4345976831681533 9.743875835595693 6.019465798333002 0 0 0
72 1 4.599834826003586 5.670551238475357 4.001215860833001 0 0 0
75 1 1.1041233935035826 5.670551238475352 6.019465798333 0 0 0
76 1 2.2693605369357917 6.484070623296902 4.001215860832997 0 0 0
106 1 4.599834824700443 8.111747958933522 4.001215860833 0 0 0
108 1 3.4345976806162093 7.302800930725276 6.019465798333003 0 0 0
109 1 1.1041233922004399 8.111747958933522 6.019465798333002 0 0 0
110 1 2.269360537378168 8.918168813997974 4.001215860833002 0 0 0
152 1 3.4345976831681533 9.743875835595695 1.982965923332999 0 0 0
201 1 4.5998348247004355 8.111747958933524 8.037715735832998 0 0 0
203 1 3.434597680616205 7.302800930725277 1.9829659233330008 0 0 0
204 1 1.1041233922004368 8.111747958933522 1.9829659233329957 0 0 0
205 1 2.269360537378166 8.918168813997971 8.037715735832998 0 0 0
3 1 6.930309115668152 9.743875835595693 4.001215860832998 0 0 0
5 1 5.765071969435793 6.484070623296904 1.9829659233330037 0 0 0
50 1 6.9303091156681536 9.74387583559569 8.037715735833004 0 0 0
69 1 8.095546258503582 5.670551238475356 1.9829659233330006 0 0 0
70 1 9.260783401935793 6.484070623296905 8.037715735832998 0 0 0
73 1 5.765071969435795 6.484070623296903 6.019465798332996 0 0 0
81 1 8.095546258503582 5.670551238475356 6.0194657983329956 0 0 0
107 1 5.765071969878165 8.918168813997971 6.019465798332998 0 0 0
130 1 8.09554625720044 8.111747958933524 1.9829659233329988 0 0 0
131 1 9.260783402378166 8.918168813997973 8.037715735833 0 0 0
132 1 6.930309113116207 7.302800930725277 8.037715735832998 0 0 0
188 1 8.09554625720044 8.111747958933522 6.019465798333002 0 0 0
189 1 9.260783402378165 8.918168813997974 4.0012158608330015 0 0 0
190 1 6.9303091131162 7.302800930725274 4.001215860833001 0 0 0
199 1 9.260783401935795 6.484070623296905 4.0012158608330015 0 0 0
202 1 5.765071969878166 8.918168813997971 1.9829659233330021 0 0 0
35 1 11.591257691003584 5.670551238475356 8.037715735832998 0 0 0
38 1 12.756494834435797 6.484070623296906 1.9829659233330008 0 0 0
78 1 11.591257691003584 5.670551238475357 4.0012158608330015 0 0 0
79 1 12.756494834435792 6.484070623296904 6.0194657983329956 0 0 0
111 1 13.921731978116203 7.302800930725273 4.0012158608330015 0 0 0
112 1 11.591257689700441 8.111747958933522 4.0012158608330015 0 0 0
126 1 13.921731978116206 7.302800930725284 8.037715735833002 0 0 0
127 1 11.591257689700438 8.111747958933526 8.037715735833 0 0 0
128 1 12.756494834878167 8.918168813997973 1.9829659233330001 0 0 0
129 1 10.426020545616204 7.302800930725278 1.9829659233329997 0 0 0
155 1 13.921731980668154 9.743875835595688 8.037715735832998 0 0 0
158 1 10.426020548168152 9.743875835595693 1.9829659233329988 0 0 0
179 1 13.921731980668152 9.743875835595693 4.001215860833 0 0 0
183 1 10.426020548168152 9.743875835595693 6.019465798333001 0 0 0
186 1 12.756494834878167 8.918168813997973 6.019465798333003 0 0 0
187 1 10.426020545616204 7.302800930725274 6.019465798332999 0 0 0
51 1 4.599834829087333 10.64942989012972 4.001215860832998 0 0 0
54 1 1.1041233965873347 10.649429890129722 6.019465798332998 0 0 0
64 1 3.434597686416531 12.06729392682262 6.019465798332998 0 0 0
153 1 1.1041233965873363 10.64942989012972 1.9829659233329988 0 0 0
154 1 2.2693605419437923 11.341140497256948 8.037715735833 0 0 0
177 1 2.269360541943791 11.341140497256943 4.001215860833002 0 0 0
191 1 4.599834829087331 10.649429890129722 8.037715735833 0 0 0
195 1 3.4345976864165304 12.06729392682262 1.9829659233330006 0 0 0
40 1 6.930309118916534 12.067293926822625 8.037715735833002 0 0 0
48 1 8.095546261587337 10.64942989012972 1.9829659233329997 0 0 0
49 1 9.26078340694379 11.341140497256944 8.037715735833002 0 0 0
52 1 5.765071974443791 11.341140497256948 6.019465798333 0 0 0
98 1 6.930309118916529 12.06729392682262 4.001215860833 0 0 0
184 1 8.095546261587334 10.649429890129724 6.019465798332999 0 0 0
185 1 9.260783406943789 11.341140497256946 4.001215860832999 0 0 0
192 1 5.76507197444379 11.341140497256946 1.9829659233330015 0 0 0
34 1 10.426020551416531 12.067293926822622 1.9829659233330013 0 0 0
66 1 13.921731983916533 12.067293926822623 4.001215860833 0 0 0
96 1 10.426020551416531 12.06729392682262 6.019465798332999 0 0 0
156 1 11.591257694087334 10.64942989012972 8.037715735833 0 0 0
157 1 12.756494839443793 11.341140497256948 1.9829659233329993 0 0 0
181 1 11.591257694087334 10.649429890129722 4.001215860833002 0 0 0
182 1 12.75649483944379 11.341140497256946 6.019465798332999 0 0 0
197 1 13.921731983916532 12.067293926822622 8.037715735832998 0 0 0
63 1 2.2693605287696075 17.859377958799996 4.001215860833001 0 0 0
65 1 4.599834818026617 18.58607409019613 4.001215860833001 0 0 0
67 1 1.1041233855266177 18.58607409019614 6.019465798332998 0 0 0
90 1 3.4345976744726707 19.275957018674905 1.982965923332996 0 0 0
175 1 3.434597674472671 19.27595701867491 6.019465798333003 0 0 0
194 1 2.2693605287696084 17.859377958799996 8.037715735833 0 0 0
196 1 4.599834818026614 18.58607409019614 8.037715735833002 0 0 0
198 1 1.1041233855266197 18.58607409019614 1.982965923333001 0 0 0
24 1 9.260783393769609 17.859377958799996 8.037715735833 0 0 0
41 1 8.095546250526622 18.58607409019614 1.9829659233330015 0 0 0
46 1 6.930309106972675 19.275957018674905 4.0012158608330015 0 0 0
62 1 5.765071961269607 17.859377958799996 6.019465798333 0 0 0
95 1 9.260783393769607 17.859377958799996 4.001215860833001 0 0 0
99 1 8.09554625052662 18.58607409019614 6.019465798333 0 0 0
104 1 6.930309106972674 19.275957018674905 8.037715735832998 0 0 0
193 1 5.765071961269609 17.859377958799996 1.9829659233329988 0 0 0
9 1 12.756494826269611 17.859377958799996 1.9829659233330004 0 0 0
39 1 11.59125768302662 18.58607409019614 8.037715735833002 0 0 0
44 1 10.426020539472676 19.27595701867491 6.019465798332999 0 0 0
92 1 13.92173197197267 19.27595701867491 8.037715735833 0 0 0
94 1 12.75649482626961 17.859377958799996 6.019465798332999 0 0 0
97 1 11.591257683026617 18.586074090196135 4.001215860832999 0 0 0
102 1 10.426020539472672 19.27595701867491 1.982965923333002 0 0 0
178 1 13.921731971972674 19.27595701867491 4.001215860833002 0 0 0
89 1 2.2693605321792676 20.183457009834836 8.037715735833 0 0 0
91 1 4.599834821482962 21.006046738764287 8.037715735833 0 0 0
93 1 1.1041233889829627 21.006046738764287 1.982965923333003 0 0 0
114 1 2.2693605360898412 22.624076964321635 8.037715735832998 0 0 0
115 1 3.4345976788730153 21.811740391883976 1.982965923333002 0 0 0
116 1 4.599834825308054 23.43412684289254 8.037715735832998 0 0 0
118 1 1.1041233928080512 23.434126842892535 1.9829659233330008 0 0 0
134 1 2.269360536089842 22.62407696432163 4.001215860833002 0 0 0
135 1 3.4345976788730144 21.81174039188398 6.019465798333 0 0 0
136 1 4.599834825308053 23.43412684289254 4.0012158608330015 0 0 0
138 1 1.1041233928080563 23.434126842892535 6.019465798332997 0 0 0
174 1 2.269360532179264 20.183457009834846 4.001215860832999 0 0 0
176 1 4.5998348214829585 21.00604673876429 4.001215860833001 0 0 0
180 1 1.1041233889829627 21.00604673876429 6.019465798332996 0 0 0
222 1 3.434597682474955 24.255790361056007 1.9829659233330017 0 0 0
224 1 3.4345976824749536 24.255790361056007 6.019465798332997 0 0 0
23 1 6.930309114974952 24.255790361056004 4.001215860833002 0 0 0
43 1 9.260783397179264 20.183457009834843 4.001215860832999 0 0 0
47 1 8.095546253982965 21.006046738764287 6.019465798333 0 0 0
83 1 9.260783401089844 22.624076964321635 4.001215860832999 0 0 0
86 1 6.930309111373018 21.811740391883976 4.001215860833 0 0 0
87 1 8.095546257808055 23.434126842892535 6.019465798332999 0 0 0
88 1 5.765071964679265 20.183457009834843 1.9829659233329975 0 0 0
101 1 9.260783397179264 20.18345700983484 8.037715735832998 0 0 0
105 1 8.095546253982963 21.006046738764287 1.9829659233330021 0 0 0
113 1 5.765071968589842 22.62407696432163 1.9829659233329977 0 0 0
133 1 5.765071968589842 22.624076964321635 6.019465798333 0 0 0
147 1 9.260783401089844 22.624076964321638 8.037715735832997 0 0 0
150 1 6.930309111373014 21.811740391883976 8.037715735833 0 0 0
151 1 8.095546257808053 23.43412684289254 1.9829659233330008 0 0 0
173 1 5.765071964679266 20.183457009834843 6.019465798333002 0 0 0
217 1 6.9303091149749525 24.255790361056004 8.037715735832998 0 0 0
15 1 10.42602054747495 24.255790361056004 6.019465798333 0 0 0
42 1 12.756494829679268 20.183457009834843 6.019465798333 0 0 0
45 1 11.591257686482964 21.006046738764294 4.001215860832999 0 0 0
56 1 13.92173197997495 24.255790361056007 8.037715735833002 0 0 0
60 1 10.426020547474952 24.255790361056007 1.9829659233329997 0 0 0
82 1 12.75649483358984 22.62407696432163 6.019465798333001 0 0 0
84 1 10.426020543873015 21.81174039188398 6.019465798333 0 0 0
85 1 11.591257690308053 23.434126842892535 4.001215860832999 0 0 0
100 1 12.756494829679264 20.183457009834843 1.982965923332997 0 0 0
103 1 11.591257686482967 21.006046738764287 8.037715735833002 0 0 0
117 1 13.921731976373014 21.811740391883976 8.037715735833002 0 0 0
137 1 13.921731976373016 21.811740391883976 4.001215860833001 0 0 0
146 1 12.756494833589839 22.624076964321635 1.9829659233330006 0 0 0
148 1 10.426020543873017 21.811740391883976 1.9829659233330046 0 0 0
149 1 11.591257690308051 23.434126842892535 8.037715735833 0 0 0
226 1 13.92173197997495 24.255790361056007 4.001215860833001 0 0 0
2 1 1.104123392353 25.862058453958 6.019465798333 0 0 0
4 1 3.434597727296 29.21037779161 6.019465798333 0 0 0
13 1 2.26936048991 27.590681807918 8.037715735833 0 0 0
17 1 3.434597727296 26.727767215617 1.982965923333 0 0 0
22 1 4.599834824853 28.124033467998 8.037715735833 0 0 0
30 1 1.104123392353 28.124033467998 1.982965923333 0 0 0
55 1 4.599834824853 25.862058453958 8.037715735833 0 0 0
57 1 1.104123392353 25.862058453958 1.982965923333 0 0 0
139 1 2.26936048991 27.590681807918 4.001215860833 0 0 0
140 1 3.434597727296 26.727767215617 6.019465798333 0 0 0
141 1 4.599834824853 28.124033467998 4.001215860833 0 0 0
143 1 1.104123392353 28.124033467998 6.019465798333 0 0 0
220 1 2.269360539861197 25.065308361053987 8.037715735832997 0 0 0
223 1 2.269360539861198 25.065308361053983 4.001215860833001 0 0 0
225 1 4.599834824853 25.862058453958 4.001215860833 0 0 0
229 1 3.434597727296 29.21037779161 1.982965923333 0 0 0
8 1 5.76507192241 27.590681807918 1.982965923333 0 0 0
10 1 9.260783404861197 25.06530836105399 4.001215860832998 0 0 0
27 1 8.095546257353 25.862058453958 6.019465798333 0 0 0
59 1 9.260783404861199 25.065308361053987 8.037715735833002 0 0 0
145 1 9.26078335491 27.590681807918 4.001215860833 0 0 0
161 1 6.930309159796 29.21037779161 4.001215860833 0 0 0
170 1 6.930309159796 29.21037779161 8.037715735833 0 0 0
215 1 6.930309159796 26.727767215617 4.001215860833 0 0 0
216 1 8.095546257353 28.124033467998 6.019465798333 0 0 0
218 1 5.765071972361197 25.065308361053987 1.982965923333001 0 0 0
219 1 8.095546257353 25.862058453958 1.982965923333 0 0 0
221 1 5.765071972361195 25.065308361053987 6.019465798332999 0 0 0
235 1 9.26078335491 27.590681807918 8.037715735833 0 0 0
238 1 6.930309159796 26.727767215617 8.037715735833 0 0 0
239 1 8.095546257353 28.124033467998 1.982965923333 0 0 0
240 1 5.76507192241 27.590681807918 6.019465798333 0 0 0
6 1 12.7564948373612 25.065308361053987 6.019465798332999 0 0 0
18 1 11.591257689853 25.862058453958 4.001215860833 0 0 0
26 1 13.921732024796 26.727767215617 8.037715735833 0 0 0
29 1 13.921732024796 29.21037779161 4.001215860833 0 0 0
37 1 10.426020592296 29.21037779161 6.019465798333 0 0 0
58 1 12.756494837361197 25.065308361053987 1.9829659233330004 0 0 0
61 1 11.591257689853 25.862058453958 8.037715735833 0 0 0
142 1 13.921732024796 26.727767215617 4.001215860833 0 0 0
144 1 12.75649478741 27.590681807918 6.019465798333 0 0 0
167 1 10.426020592296 29.21037779161 1.982965923333 0 0 0
212 1 10.426020592296 26.727767215617 6.019465798333 0 0 0
214 1 11.591257689853 28.124033467998 4.001215860833 0 0 0
232 1 13.921732024796 29.21037779161 8.037715735833 0 0 0
234 1 12.75649478741 27.590681807918 1.982965923333 0 0 0
236 1 10.426020592296 26.727767215617 1.982965923333 0 0 0
237 1 11.591257689853 28.124033467998 8.037715735833 0 0 0

Velocities

12 0 0 0
14 0 0 0
20 0 0 0
74 0 0 0
119 0 0 0
162 0 0 0
164 0 0 0
165 0 0 0
171 0 0 0
207 0 0 0
209 0 0 0
210 0 0 0
211 0 0 0
227 0 0 0
230 0 0 0
231 0 0 0
16 0 0 0
21 0 0 0
25 0 0 0
71 0 0 0
124 0 0 0
125 0 0 0
159 0 0 0
160 0 0 0
163 0 0 0
168 0 0 0
169 0 0 0
172 0 0 0
200 0 0 0
206 0 0 0
208 0 0 0
228 0 0 0
1 0 0 0
7 0 0 0
11 0 0 0
32 0 0 0
33 0 0 0
36 0 0 0
68 0 0 0
77 0 0 0
80 0 0 0
120 0 0 0
121 0 0 0
122 0 0 0
123 0 0 0
166 0 0 0
213 0 0 0
233 0 0 0
19 0 0 0
28 0 0 0
31 0 0 0
53 0 0 0
72 0 0 0
75 0 0 0
76 0 0 0
106 0 0 0
108 0 0 0
109 0 0 0
110 0 0 0
152 0 0 0
201 0 0 0
203 0 0 0
204 0 0 0
205 0 0 0
3 0 0 0
5 0 0 0
50 0 0 0
69 0 0 0
70 0 0 0
73 0 0 0
81 0 0 0
107 0 0 0
130 0 0 0
131 0 0 0
132 0 0 0
188 0 0 0
189 0 0 0
190 0 0 0
199 0 0 0
202 0 0 0
35 0 0 0
38 0 0 0
78 0 0 0
79 0 0 0
111 0 0 0
112 0 0 0
126 0 0 0
127 0 0 0
128 0 0 0
129 0 0 0
155 0 0 0
158 0 0 0
179 0 0 0
183 0 0 0
186 0 0 0
187 0 0 0
51 0 0 0
54 0 0 0
64 0 0 0
153 0 0 0
154 0 0 0
177 0 0 0
191 0 0 0
195 0 0 0
40 0 0 0
48 0 0 0
49 0 0 0
52 0 0 0
98 0 0 0
184 0 0 0
185 0 0 0
192 0 0 0
34 0 0 0
66 0 0 0
96 0 0 0
156 0 0 0
157 0 0 0
181 0 0 0
182 0 0 0
197 0 0 0
63 0 0 0
65 0 0 0
67 0 0 0
90 0 0 0
175 0 0 0
194 0 0 0
196 0 0 0
198 0 0 0
24 0 0 0
41 0 0 0
46 0 0 0
62 0 0 0
95 0 0 0
99 0 0 0
104 0 0 0
193 0 0 0
9 0 0 0
39 0 0 0
44 0 0 0
92 0 0 0
94 0 0 0
97 0 0 0
102 0 0 0
178 0 0 0
89 0 0 0
91 0 0 0
93 0 0 0
114 0 0 0
115 0 0 0
116 0 0 0
118 0 0 0
134 0 0 0
135 0 0 0
136 0 0 0
138 0 0 0
174 0 0 0
176 0 0 0
180 0 0 0
222 0 0 0
224 0 0 0
23 0 0 0
43 0 0 0
47 0 0 0
83 0 0 0
86 0 0 0
87 0 0 0
88 0 0 0
101 0 0 0
105 0 0 0
113 0 0 0
133 0 0 0
147 0 0 0
150 0 0 0
151 0 0 0
173 0 0 0
217 0 0 0
15 0 0 0
42 0 0 0
45 0 0 0
56 0 0 0
60 0 0 0
82 0 0 0
84 0 0 0
85 0 0 0
100 0 0 0
103 0 0 0
117 0 0 0
137 0 0 0
146 0 0 0
148 0 0 0
149 0 0 0
226 0 0 0
2 0 0 0
4 0 0 0
13 0 0 0
17 0 0 0
22 0 0 0
30 0 0 0
55 0 0 0
57 0 0 0
139 0 0 0
140 0 0 0
141 0 0 0
143 0 0 0
220 0 0 0
223 0 0 0
225 0 0 0
229 0 0 0
8 0 0 0
10 0 0 0
27 0 0 0
59 0 0 0
145 0 0 0
161 0 0 0
170 0 0 0
215 0 0 0
216 0 0 0
218 0 0 0
219 0 0 0
221 0 0 0
235 0 0 0
238 0 0 0
239 0 0 0
240 0 0 0
6 0 0 0
18 0 0 0
26 0 0 0
29 0 0 0
37 0 0 0
58 0 0 0
61 0 0 0
142 0 0 0
144 0 0 0
167 0 0 0
212 0 0 0
214 0 0 0
232 0 0 0
234 0 0 0
236 0 0 0
237 0 0 0
