LAMMPS data file via write_data, version 29 Aug 2024, timestep = 2, units = metal

288 atoms
1 atom types

0 11.317147 xlo xhi
0 28.363582 ylo yhi
0 11.317147 zlo zhi

Masses

1 55.8

Atoms # atomic

1 1 0 0 0 0 0 0
2 1 1.414643375 1.414643557616 1.414643375 0 0 0
3 1 0 0 2.82928675 0 0 0
4 1 1.414643375 1.414643557616 4.243930125 0 0 0
9 1 0 2.82928660596 0 0 0 0
10 1 1.4146433750000007 4.240855648987712 1.4146433749999991 0 0 0
11 1 0 2.82928660596 2.82928675 0 0 0
12 1 1.4146433749999991 4.240855648987714 4.2439301249999986 0 0 0
73 1 2.82928675 0 0 0 0 0
74 1 4.243930125 1.414643557616 1.414643375 0 0 0
75 1 2.82928675 0 2.82928675 0 0 0
76 1 4.243930125 1.414643557616 4.243930125 0 0 0
81 1 2.82928675 2.82928660596 0 0 0 0
82 1 4.243930124999999 4.240855648987712 1.4146433750000007 0 0 0
83 1 2.82928675 2.82928660596 2.82928675 0 0 0
84 1 4.243930125000001 4.240855648987712 4.243930124999999 0 0 0
145 1 5.6585735 0 0 0 0 0
146 1 7.073216875 1.414643557616 1.414643375 0 0 0
147 1 5.6585735 0 2.82928675 0 0 0
148 1 7.073216875 1.414643557616 4.243930125 0 0 0
153 1 5.6585735 2.82928660596 0 0 0 0
154 1 7.073216875 4.240855648987713 1.414643375 0 0 0
155 1 5.6585735 2.82928660596 2.82928675 0 0 0
156 1 7.073216875 4.240855648987716 4.243930125 0 0 0
217 1 8.48786025 0 0 0 0 0
218 1 9.902503625 1.414643557616 1.414643375 0 0 0
219 1 8.48786025 0 2.82928675 0 0 0
220 1 9.902503625 1.414643557616 4.243930125 0 0 0
225 1 8.48786025 2.82928660596 0 0 0 0
226 1 9.902503625 4.2408556489877105 1.4146433750000005 0 0 0
227 1 8.48786025 2.82928660596 2.82928675 0 0 0
228 1 9.902503625000001 4.240855648987713 4.243930124999999 0 0 0
17 1 1.2739252876991744e-15 5.656484193877622 0 0 0 0
18 1 1.4146433749999994 7.0741472849124465 1.4146433749999994 0 0 0
19 1 0 5.656484193877623 2.82928675 0 0 0
20 1 1.4146433750000005 7.074147284912443 4.2439301249999986 0 0 0
25 1 1.6569130210301876e-15 8.488639974664228 4.308629376751877e-15 0 0 0
27 1 11.317146999999999 8.488639974664224 2.8292867499999974 -1 0 0
89 1 2.829286749999999 5.656484193877621 9.913187931601456e-17 0 0 0
90 1 4.243930125 7.074147284912446 1.4146433750000003 0 0 0
91 1 2.8292867500000014 5.656484193877623 2.8292867499999987 0 0 0
92 1 4.243930125000002 7.074147284912444 4.243930124999998 0 0 0
97 1 2.82928675 8.488639974664224 1.2608434827760735e-15 0 0 0
99 1 2.829286750000002 8.488639974664224 2.8292867499999983 0 0 0
161 1 5.658573500000003 5.656484193877626 2.769826916149477e-16 0 0 0
162 1 7.073216874999999 7.074147284912446 1.414643375000001 0 0 0
163 1 5.658573500000001 5.656484193877624 2.8292867500000014 0 0 0
164 1 7.073216875000001 7.074147284912442 4.2439301249999986 0 0 0
169 1 5.658573499999999 8.488639974664226 1.72947121995274e-15 0 0 0
171 1 5.658573500000001 8.488639974664226 2.8292867499999983 0 0 0
233 1 8.487860249999999 5.656484193877624 11.317146999999999 0 0 -1
234 1 9.902503625 7.0741472849124465 1.4146433750000007 0 0 0
235 1 8.487860249999999 5.656484193877623 2.82928675 0 0 0
236 1 9.902503624999998 7.074147284912443 4.243930124999999 0 0 0
241 1 8.48786025 8.488639974664226 8.562422893639076e-16 0 0 0
243 1 8.48786025 8.488639974664224 2.8292867499999996 0 0 0
26 1 1.4146433749999985 9.896765664545123 1.4146433749999985 0 0 0
28 1 1.4146433749999994 9.896765664545123 4.2439301249999986 0 0 0
33 1 0 11.32192276186606 11.317146999999999 0 0 -1
34 1 1.4146433749999994 12.7302358895028 1.4146433749999998 0 0 0
35 1 1.7944952536235177e-15 11.32192276186606 2.8292867500000014 0 0 0
36 1 1.4146433749999994 12.7302358895028 4.243930124999999 0 0 0
98 1 4.2439301249999986 9.896765664545123 1.4146433749999991 0 0 0
100 1 4.243930125000002 9.896765664545125 4.243930125 0 0 0
105 1 2.829286750000002 11.32192276186606 4.354483450906039e-16 0 0 0
106 1 4.243930125 12.7302358895028 1.4146433749999991 0 0 0
107 1 2.8292867500000005 11.32192276186606 2.8292867499999987 0 0 0
108 1 4.243930125000001 12.7302358895028 4.243930124999999 0 0 0
170 1 7.073216875000002 9.896765664545121 1.4146433749999991 0 0 0
172 1 7.073216875 9.896765664545121 4.243930124999999 0 0 0
177 1 5.658573500000001 11.321922761866063 0 0 0 0
178 1 7.073216875 12.730235889502799 1.4146433750000003 0 0 0
179 1 5.6585735 11.32192276186606 2.8292867499999996 0 0 0
180 1 7.073216874999999 12.730235889502802 4.243930124999999 0 0 0
242 1 9.902503625000001 9.896765664545121 1.414643375000002 0 0 0
244 1 9.902503624999998 9.896765664545123 4.2439301249999986 0 0 0
249 1 8.487860249999999 11.321922761866063 2.614646969567218e-16 0 0 0
250 1 9.902503625 12.730235889502802 1.4146433749999998 0 0 0
251 1 8.487860249999999 11.321922761866059 2.8292867500000014 0 0 0
252 1 9.902503625 12.730235889502804 4.243930124999999 0 0 0
41 1 3.4793742362967545e-16 17.0480024747188 0 0 0 0
42 1 1.4146433749999978 18.45643285496035 1.4146433750000011 0 0 0
43 1 1.2217070270367348e-15 17.0480024747188 2.8292867500000005 0 0 0
44 1 1.414643374999999 18.456432854960354 4.243930124999998 0 0 0
113 1 2.8292867499999983 17.0480024747188 3.023364620363635e-16 0 0 0
114 1 4.243930125 18.45643285496035 1.4146433749999998 0 0 0
115 1 2.829286749999999 17.0480024747188 2.8292867499999996 0 0 0
116 1 4.243930125 18.45643285496035 4.243930125 0 0 0
185 1 5.6585735 17.0480024747188 8.268070736316837e-16 0 0 0
186 1 7.073216875000002 18.45643285496035 1.4146433750000005 0 0 0
187 1 5.658573499999999 17.0480024747188 2.8292867499999996 0 0 0
188 1 7.0732168750000035 18.45643285496035 4.243930124999999 0 0 0
257 1 8.48786025 17.0480024747188 5.002885685698821e-16 0 0 0
258 1 9.902503625 18.45643285496035 1.4146433749999991 0 0 0
259 1 8.48786025 17.048002474718796 2.829286749999999 0 0 0
260 1 9.902503625 18.45643285496035 4.2439301249999986 0 0 0
49 1 1.0175248121437908e-15 19.88219626459056 0 0 0 0
50 1 1.4146433749999994 21.291714464620718 1.4146433750000007 0 0 0
51 1 2.4348357017299687e-15 19.88219626459056 2.829286750000002 0 0 0
52 1 1.4146433749999983 21.291714464620718 4.2439301249999986 0 0 0
57 1 3.6725658250939247e-16 22.704608451792055 2.0000414275557589e-16 0 0 0
59 1 6.209629812972985e-17 22.704608451792055 2.829286750000003 0 0 0
121 1 2.8292867499999974 19.88219626459056 11.317146999999999 0 0 -1
122 1 4.243930125000001 21.29171446462072 1.414643375 0 0 0
123 1 2.829286749999998 19.88219626459056 2.829286750000003 0 0 0
124 1 4.243930125 21.29171446462072 4.2439301249999986 0 0 0
129 1 2.8292867499999996 22.70460845179206 11.317146999999999 0 0 -1
131 1 2.8292867499999987 22.70460845179206 2.8292867500000014 0 0 0
193 1 5.658573500000002 19.88219626459056 7.553894206109611e-16 0 0 0
194 1 7.073216874999997 21.291714464620718 1.4146433749999991 0 0 0
195 1 5.658573499999999 19.88219626459056 2.8292867500000005 0 0 0
196 1 7.073216875 21.29171446462072 4.243930125000001 0 0 0
201 1 5.6585735 22.70460845179206 1.473344742112115e-16 0 0 0
203 1 5.658573499999999 22.70460845179206 2.8292867499999996 0 0 0
265 1 8.487860250000002 19.88219626459056 11.317146999999999 0 0 -1
266 1 9.902503625 21.291714464620718 1.4146433749999996 0 0 0
267 1 8.487860250000002 19.882196264590558 2.8292867500000014 0 0 0
268 1 9.902503625000003 21.291714464620718 4.243930125000001 0 0 0
273 1 8.48786025 22.70460845179206 2.972991473465966e-16 0 0 0
275 1 8.487860250000002 22.70460845179206 2.8292867500000023 0 0 0
58 1 1.414643375000001 24.113787651689634 1.4146433749999998 0 0 0
60 1 1.4146433750000011 24.11378765168963 4.243930125000001 0 0 0
65 1 0 25.53429539404 0 0 0 0
66 1 1.414643375 26.948937423841 1.414643375 0 0 0
67 1 0 25.53429539404 2.82928675 0 0 0
68 1 1.414643375 26.948937423841 4.243930125 0 0 0
130 1 4.243930124999999 24.11378765168963 1.4146433749999987 0 0 0
132 1 4.2439301249999986 24.113787651689634 4.243930125000001 0 0 0
137 1 2.82928675 25.53429539404 0 0 0 0
138 1 4.243930125 26.948937423841 1.414643375 0 0 0
139 1 2.82928675 25.53429539404 2.82928675 0 0 0
140 1 4.243930125 26.948937423841 4.243930125 0 0 0
202 1 7.073216875000001 24.113787651689634 1.4146433749999991 0 0 0
204 1 7.073216875000002 24.11378765168963 4.2439301249999986 0 0 0
209 1 5.6585735 25.53429539404 0 0 0 0
210 1 7.073216875 26.948937423841 1.414643375 0 0 0
211 1 5.6585735 25.53429539404 2.82928675 0 0 0
212 1 7.073216875 26.948937423841 4.243930125 0 0 0
274 1 9.902503624999998 24.113787651689634 1.4146433749999998 0 0 0
276 1 9.902503625 24.11378765168963 4.243930124999999 0 0 0
281 1 8.48786025 25.53429539404 0 0 0 0
282 1 9.902503625 26.948937423841 1.414643375 0 0 0
283 1 8.48786025 25.53429539404 2.82928675 0 0 0
284 1 9.902503625 26.948937423841 4.243930125 0 0 0
5 1 0 0 5.6585735 0 0 0
6 1 1.414643375 1.414643557616 7.073216875 0 0 0
7 1 0 0 8.48786025 0 0 0
8 1 1.414643375 1.414643557616 9.902503625 0 0 0
13 1 0 2.82928660596 5.6585735 0 0 0
14 1 1.4146433749999987 4.240855648987713 7.073216875 0 0 0
15 1 0 2.82928660596 8.48786025 0 0 0
16 1 1.4146433749999985 4.240855648987712 9.902503625000001 0 0 0
77 1 2.82928675 0 5.6585735 0 0 0
78 1 4.243930125 1.414643557616 7.073216875 0 0 0
79 1 2.82928675 0 8.48786025 0 0 0
80 1 4.243930125 1.414643557616 9.902503625 0 0 0
85 1 2.82928675 2.82928660596 5.6585735 0 0 0
86 1 4.243930124999999 4.240855648987714 7.073216875 0 0 0
87 1 2.82928675 2.82928660596 8.48786025 0 0 0
88 1 4.243930125000002 4.240855648987713 9.902503625000001 0 0 0
149 1 5.6585735 0 5.6585735 0 0 0
150 1 7.073216875 1.414643557616 7.073216875 0 0 0
151 1 5.6585735 0 8.48786025 0 0 0
152 1 7.073216875 1.414643557616 9.902503625 0 0 0
157 1 5.6585735 2.82928660596 5.6585735 0 0 0
158 1 7.073216875000001 4.240855648987715 7.073216875 0 0 0
159 1 5.6585735 2.82928660596 8.48786025 0 0 0
160 1 7.073216875000002 4.240855648987713 9.902503625 0 0 0
221 1 8.48786025 0 5.6585735 0 0 0
222 1 9.902503625 1.414643557616 7.073216875 0 0 0
223 1 8.48786025 0 8.48786025 0 0 0
224 1 9.902503625 1.414643557616 9.902503625 0 0 0
229 1 8.48786025 2.82928660596 5.6585735 0 0 0
230 1 9.902503625 4.240855648987711 7.073216875 0 0 0
231 1 8.48786025 2.82928660596 8.48786025 0 0 0
232 1 9.902503625 4.240855648987711 9.902503625 0 0 0
21 1 0 5.656484193877624 5.6585735 0 0 0
22 1 1.4146433749999994 7.074147284912445 7.073216875000003 0 0 0
23 1 0 5.656484193877622 8.48786025 0 0 0
24 1 1.4146433750000005 7.074147284912446 9.902503625 0 0 0
29 1 11.317146999999999 8.488639974664226 5.658573499999999 -1 0 0
31 1 2.714453287752733e-16 8.488639974664224 8.48786025 0 0 0
93 1 2.82928675 5.656484193877621 5.658573499999999 0 0 0
94 1 4.243930125000004 7.074147284912446 7.073216875000002 0 0 0
95 1 2.8292867500000005 5.656484193877621 8.48786025 0 0 0
96 1 4.243930125000002 7.0741472849124465 9.902503624999998 0 0 0
101 1 2.8292867500000005 8.488639974664226 5.6585735 0 0 0
103 1 2.829286750000002 8.488639974664226 8.487860250000002 0 0 0
165 1 5.658573500000001 5.656484193877623 5.658573499999998 0 0 0
166 1 7.073216874999999 7.074147284912445 7.073216875000003 0 0 0
167 1 5.6585735 5.656484193877623 8.487860249999999 0 0 0
168 1 7.073216874999999 7.074147284912444 9.902503625 0 0 0
173 1 5.6585735 8.488639974664228 5.658573500000002 0 0 0
175 1 5.6585735 8.488639974664222 8.48786025 0 0 0
237 1 8.487860249999999 5.656484193877622 5.658573499999999 0 0 0
238 1 9.902503625 7.074147284912444 7.073216874999999 0 0 0
239 1 8.487860249999999 5.656484193877624 8.48786025 0 0 0
240 1 9.902503624999996 7.074147284912442 9.902503625 0 0 0
245 1 8.487860249999999 8.488639974664226 5.658573500000003 0 0 0
247 1 8.487860249999999 8.488639974664226 8.487860249999999 0 0 0
30 1 1.414643374999999 9.896765664545123 7.073216875000002 0 0 0
32 1 1.4146433750000016 9.896765664545125 9.902503625000001 0 0 0
37 1 11.317146999999997 11.32192276186606 5.658573500000003 -1 0 0
38 1 1.4146433749999998 12.730235889502802 7.073216875000001 0 0 0
39 1 0 11.32192276186606 8.48786025 0 0 0
40 1 1.4146433750000003 12.730235889502802 9.902503625 0 0 0
102 1 4.243930125 9.896765664545123 7.073216875000001 0 0 0
104 1 4.2439301249999986 9.896765664545125 9.902503624999998 0 0 0
109 1 2.829286750000002 11.321922761866064 5.6585735 0 0 0
110 1 4.243930125000001 12.730235889502802 7.073216875000001 0 0 0
111 1 2.8292867500000005 11.321922761866057 8.48786025 0 0 0
112 1 4.243930124999999 12.7302358895028 9.902503625000001 0 0 0
174 1 7.073216875 9.89676566454512 7.073216874999999 0 0 0
176 1 7.073216875 9.896765664545123 9.902503625 0 0 0
181 1 5.658573500000001 11.321922761866063 5.658573499999999 0 0 0
182 1 7.073216874999999 12.7302358895028 7.073216875 0 0 0
183 1 5.6585735 11.321922761866059 8.48786025 0 0 0
184 1 7.073216875 12.7302358895028 9.902503625000001 0 0 0
246 1 9.902503624999998 9.896765664545121 7.073216874999999 0 0 0
248 1 9.902503625000001 9.896765664545125 9.902503625000001 0 0 0
253 1 8.487860249999999 11.32192276186606 5.6585735 0 0 0
254 1 9.902503624999998 12.730235889502802 7.073216875 0 0 0
255 1 8.48786025 11.321922761866063 8.48786025 0 0 0
256 1 9.902503625 12.7302358895028 9.902503625000001 0 0 0
45 1 1.1871928602439207e-15 17.0480024747188 5.6585735 0 0 0
46 1 1.4146433749999985 18.45643285496035 7.073216875 0 0 0
47 1 8.031706421686736e-16 17.0480024747188 8.48786025 0 0 0
48 1 1.4146433750000005 18.45643285496035 9.902503625000001 0 0 0
117 1 2.82928675 17.0480024747188 5.6585735 0 0 0
118 1 4.243930125000002 18.45643285496035 7.073216875 0 0 0
119 1 2.82928675 17.0480024747188 8.48786025 0 0 0
120 1 4.243930125 18.45643285496035 9.902503625000001 0 0 0
189 1 5.6585735 17.0480024747188 5.658573500000001 0 0 0
190 1 7.073216874999998 18.45643285496035 7.073216874999999 0 0 0
191 1 5.658573500000001 17.048002474718796 8.487860249999999 0 0 0
192 1 7.073216875 18.45643285496035 9.902503625000001 0 0 0
261 1 8.48786025 17.0480024747188 5.6585735 0 0 0
262 1 9.902503625 18.45643285496035 7.073216874999999 0 0 0
263 1 8.48786025 17.0480024747188 8.48786025 0 0 0
264 1 9.902503625 18.456432854960354 9.902503625000001 0 0 0
53 1 7.846669558501906e-16 19.88219626459056 5.6585734999999975 0 0 0
54 1 1.4146433750000003 21.29171446462072 7.073216874999999 0 0 0
55 1 7.284415007370727e-16 19.88219626459056 8.487860250000002 0 0 0
56 1 1.4146433749999996 21.29171446462072 9.902503625000001 0 0 0
61 1 1.3713296312972914e-15 22.70460845179206 5.658573499999997 0 0 0
63 1 3.392885358583138e-16 22.704608451792055 8.48786025 0 0 0
125 1 2.8292867499999983 19.882196264590565 5.658573499999998 0 0 0
126 1 4.243930125 21.29171446462072 7.073216874999999 0 0 0
127 1 2.82928675 19.88219626459056 8.48786025 0 0 0
128 1 4.243930124999999 21.29171446462072 9.902503625 0 0 0
133 1 2.8292867499999996 22.70460845179206 5.6585734999999975 0 0 0
135 1 2.829286750000002 22.70460845179206 8.487860250000002 0 0 0
197 1 5.6585735 19.88219626459056 5.6585735 0 0 0
198 1 7.073216875 21.291714464620725 7.073216874999999 0 0 0
199 1 5.658573499999999 19.88219626459056 8.48786025 0 0 0
200 1 7.073216874999999 21.291714464620718 9.902503625000003 0 0 0
205 1 5.6585735 22.704608451792055 5.658573500000002 0 0 0
207 1 5.658573499999999 22.70460845179206 8.487860249999999 0 0 0
269 1 8.487860249999999 19.882196264590565 5.658573499999999 0 0 0
270 1 9.902503625 21.291714464620718 7.073216874999999 0 0 0
271 1 8.48786025 19.88219626459056 8.487860250000002 0 0 0
272 1 9.902503625 21.291714464620718 9.902503625000001 0 0 0
277 1 8.487860249999997 22.70460845179206 5.658573499999999 0 0 0
279 1 8.48786025 22.704608451792055 8.487860249999999 0 0 0
62 1 1.4146433749999987 24.113787651689634 7.073216874999998 0 0 0
64 1 1.4146433750000003 24.113787651689634 9.902503625 0 0 0
69 1 0 25.53429539404 5.6585735 0 0 0
70 1 1.414643375 26.948937423841 7.073216875 0 0 0
71 1 0 25.53429539404 8.48786025 0 0 0
72 1 1.414643375 26.948937423841 9.902503625 0 0 0
134 1 4.243930125 24.11378765168963 7.073216875000001 0 0 0
136 1 4.243930124999999 24.113787651689634 9.902503625000001 0 0 0
141 1 2.82928675 25.53429539404 5.6585735 0 0 0
142 1 4.243930125 26.948937423841 7.073216875 0 0 0
143 1 2.82928675 25.53429539404 8.48786025 0 0 0
144 1 4.243930125 26.948937423841 9.902503625 0 0 0
206 1 7.073216875 24.11378765168963 7.073216875000002 0 0 0
208 1 7.073216874999999 24.113787651689634 9.902503625 0 0 0
213 1 5.6585735 25.53429539404 5.6585735 0 0 0
214 1 7.073216875 26.948937423841 7.073216875 0 0 0
215 1 5.6585735 25.53429539404 8.48786025 0 0 0
216 1 7.073216875 26.948937423841 9.902503625 0 0 0
278 1 9.902503625000001 24.11378765168963 7.073216875000001 0 0 0
280 1 9.902503624999998 24.11378765168963 9.902503625 0 0 0
285 1 8.48786025 25.53429539404 5.6585735 0 0 0
286 1 9.902503625 26.948937423841 7.073216875 0 0 0
287 1 8.48786025 25.53429539404 8.48786025 0 0 0
288 1 9.902503625 26.948937423841 9.902503625 0 0 0

Velocities

1 0 0 0
2 0 0 0
3 0 0 0
4 0 0 0
9 0 0 0
10 0 0 0
11 0 0 0
12 0 0 0
73 0 0 0
74 0 0 0
75 0 0 0
76 0 0 0
81 0 0 0
82 0 0 0
83 0 0 0
84 0 0 0
145 0 0 0
146 0 0 0
147 0 0 0
148 0 0 0
153 0 0 0
154 0 0 0
155 0 0 0
156 0 0 0
217 0 0 0
218 0 0 0
219 0 0 0
220 0 0 0
225 0 0 0
226 0 0 0
227 0 0 0
228 0 0 0
17 0 0 0
18 0 0 0
19 0 0 0
20 0 0 0
25 0 0 0
27 0 0 0
89 0 0 0
90 0 0 0
91 0 0 0
92 0 0 0
97 0 0 0
99 0 0 0
161 0 0 0
162 0 0 0
163 0 0 0
164 0 0 0
169 0 0 0
171 0 0 0
233 0 0 0
234 0 0 0
235 0 0 0
236 0 0 0
241 0 0 0
243 0 0 0
26 0 0 0
28 0 0 0
33 0 0 0
34 0 0 0
35 0 0 0
36 0 0 0
98 0 0 0
100 0 0 0
105 0 0 0
106 0 0 0
107 0 0 0
108 0 0 0
170 0 0 0
172 0 0 0
177 0 0 0
178 0 0 0
179 0 0 0
180 0 0 0
242 0 0 0
244 0 0 0
249 0 0 0
250 0 0 0
251 0 0 0
252 0 0 0
41 0 0 0
42 0 0 0
43 0 0 0
44 0 0 0
113 0 0 0
114 0 0 0
115 0 0 0
116 0 0 0
185 0 0 0
186 0 0 0
187 0 0 0
188 0 0 0
257 0 0 0
258 0 0 0
259 0 0 0
260 0 0 0
49 0 0 0
50 0 0 0
51 0 0 0
52 0 0 0
57 0 0 0
59 0 0 0
121 0 0 0
122 0 0 0
123 0 0 0
124 0 0 0
129 0 0 0
131 0 0 0
193 0 0 0
194 0 0 0
195 0 0 0
196 0 0 0
201 0 0 0
203 0 0 0
265 0 0 0
266 0 0 0
267 0 0 0
268 0 0 0
273 0 0 0
275 0 0 0
58 0 0 0
60 0 0 0
65 0 0 0
66 0 0 0
67 0 0 0
68 0 0 0
130 0 0 0
132 0 0 0
137 0 0 0
138 0 0 0
139 0 0 0
140 0 0 0
202 0 0 0
204 0 0 0
209 0 0 0
210 0 0 0
211 0 0 0
212 0 0 0
274 0 0 0
276 0 0 0
281 0 0 0
282 0 0 0
283 0 0 0
284 0 0 0
5 0 0 0
6 0 0 0
7 0 0 0
8 0 0 0
13 0 0 0
14 0 0 0
15 0 0 0
16 0 0 0
77 0 0 0
78 0 0 0
79 0 0 0
80 0 0 0
85 0 0 0
86 0 0 0
87 0 0 0
88 0 0 0
149 0 0 0
150 0 0 0
151 0 0 0
152 0 0 0
157 0 0 0
158 0 0 0
159 0 0 0
160 0 0 0
221 0 0 0
222 0 0 0
223 0 0 0
224 0 0 0
229 0 0 0
230 0 0 0
231 0 0 0
232 0 0 0
21 0 0 0
22 0 0 0
23 0 0 0
24 0 0 0
29 0 0 0
31 0 0 0
93 0 0 0
94 0 0 0
95 0 0 0
96 0 0 0
101 0 0 0
103 0 0 0
165 0 0 0
166 0 0 0
167 0 0 0
168 0 0 0
173 0 0 0
175 0 0 0
237 0 0 0
238 0 0 0
239 0 0 0
240 0 0 0
245 0 0 0
247 0 0 0
30 0 0 0
32 0 0 0
37 0 0 0
38 0 0 0
39 0 0 0
40 0 0 0
102 0 0 0
104 0 0 0
109 0 0 0
110 0 0 0
111 0 0 0
112 0 0 0
174 0 0 0
176 0 0 0
181 0 0 0
182 0 0 0
183 0 0 0
184 0 0 0
246 0 0 0
248 0 0 0
253 0 0 0
254 0 0 0
255 0 0 0
256 0 0 0
45 0 0 0
46 0 0 0
47 0 0 0
48 0 0 0
117 0 0 0
118 0 0 0
119 0 0 0
120 0 0 0
189 0 0 0
190 0 0 0
191 0 0 0
192 0 0 0
261 0 0 0
262 0 0 0
263 0 0 0
264 0 0 0
53 0 0 0
54 0 0 0
55 0 0 0
56 0 0 0
61 0 0 0
63 0 0 0
125 0 0 0
126 0 0 0
127 0 0 0
128 0 0 0
133 0 0 0
135 0 0 0
197 0 0 0
198 0 0 0
199 0 0 0
200 0 0 0
205 0 0 0
207 0 0 0
269 0 0 0
270 0 0 0
271 0 0 0
272 0 0 0
277 0 0 0
279 0 0 0
62 0 0 0
64 0 0 0
69 0 0 0
70 0 0 0
71 0 0 0
72 0 0 0
134 0 0 0
136 0 0 0
141 0 0 0
142 0 0 0
143 0 0 0
144 0 0 0
206 0 0 0
208 0 0 0
213 0 0 0
214 0 0 0
215 0 0 0
216 0 0 0
278 0 0 0
280 0 0 0
285 0 0 0
286 0 0 0
287 0 0 0
288 0 0 0
