LAMMPS data file via write_data, version 29 Aug 2024, timestep = 10, units = metal

288 atoms
1 atom types

0 11.317147 xlo xhi
0 26.063582 ylo yhi
0 11.317147 zlo zhi

Masses

1 55.8

Atoms # atomic

1 1 0 0 0 0 0 0
2 1 1.414643375 1.414643557616 1.414643375 0 0 0
3 1 0 0 2.82928675 0 0 0
4 1 1.414643375 1.414643557616 4.243930125 0 0 0
9 1 0 2.82928660596 0 0 0 0
10 1 1.4146433750000023 4.2822774531706385 1.4146433750000003 0 0 0
11 1 0 2.82928660596 2.82928675 0 0 0
12 1 1.4146433749999994 4.282277453170642 4.243930124999992 0 0 0
73 1 2.82928675 0 0 0 0 0
74 1 4.243930125 1.414643557616 1.414643375 0 0 0
75 1 2.82928675 0 2.82928675 0 0 0
76 1 4.243930125 1.414643557616 4.243930125 0 0 0
81 1 2.82928675 2.82928660596 0 0 0 0
82 1 4.243930124999998 4.282277453170633 1.4146433749999971 0 0 0
83 1 2.82928675 2.82928660596 2.82928675 0 0 0
84 1 4.243930125000003 4.282277453170639 4.2439301249999986 0 0 0
145 1 5.6585735 0 0 0 0 0
146 1 7.073216875 1.414643557616 1.414643375 0 0 0
147 1 5.6585735 0 2.82928675 0 0 0
148 1 7.073216875 1.414643557616 4.243930125 0 0 0
153 1 5.6585735 2.82928660596 0 0 0 0
154 1 7.073216875000006 4.282277453170636 1.4146433749999991 0 0 0
155 1 5.6585735 2.82928660596 2.82928675 0 0 0
156 1 7.073216874999998 4.282277453170648 4.243930125000006 0 0 0
217 1 8.48786025 0 0 0 0 0
218 1 9.902503625 1.414643557616 1.414643375 0 0 0
219 1 8.48786025 0 2.82928675 0 0 0
220 1 9.902503625 1.414643557616 4.243930125 0 0 0
225 1 8.48786025 2.82928660596 0 0 0 0
226 1 9.902503625 4.28227745317064 1.4146433750000038 0 0 0
227 1 8.48786025 2.82928660596 2.82928675 0 0 0
228 1 9.902503625 4.28227745317065 4.243930124999996 0 0 0
17 1 2.4977512706087014e-15 5.734336762489276 11.317146999999995 0 0 -1
18 1 1.4146433750000038 7.1915769897527335 1.4146433750000011 0 0 0
19 1 0 5.734336762489273 2.8292867500000067 0 0 0
20 1 1.4146433750000018 7.191576989752729 4.2439301249999986 0 0 0
25 1 0 8.645873376153544 11.317146999999999 0 0 -1
27 1 11.317146999999997 8.645873376153546 2.8292867500000005 -1 0 0
89 1 2.829286749999996 5.734336762489272 0 0 0 0
90 1 4.243930125000001 7.19157698975273 1.4146433749999991 0 0 0
91 1 2.8292867499999907 5.734336762489269 2.8292867500000045 0 0 0
92 1 4.243930125000004 7.191576989752727 4.243930125000003 0 0 0
97 1 2.8292867499999965 8.645873376153546 2.069596871248665e-15 0 0 0
99 1 2.829286749999998 8.645873376153542 2.829286749999999 0 0 0
161 1 5.658573500000001 5.734336762489277 11.317146999999997 0 0 -1
162 1 7.073216874999998 7.191576989752734 1.4146433750000038 0 0 0
163 1 5.658573499999999 5.7343367624892805 2.8292867500000107 0 0 0
164 1 7.073216874999994 7.19157698975273 4.243930124999995 0 0 0
169 1 5.658573500000007 8.645873376153542 3.3330804999520065e-15 0 0 0
171 1 5.658573500000001 8.64587337615354 2.8292867500000023 0 0 0
233 1 8.487860249999999 5.73433676248928 11.317146999999993 0 0 -1
234 1 9.902503624999998 7.191576989752734 1.414643374999999 0 0 0
235 1 8.487860250000004 5.734336762489275 2.8292867500000063 0 0 0
236 1 9.902503625000001 7.19157698975273 4.2439301249999986 0 0 0
241 1 8.487860250000002 8.645873376153542 11.317146999999999 0 0 -1
243 1 8.487860250000002 8.64587337615354 2.829286749999996 0 0 0
26 1 1.4146433750000038 10.101304043629389 1.4146433749999974 0 0 0
28 1 1.4146433749999963 10.101304043629389 4.243930125000007 0 0 0
33 1 3.4822927676689802e-15 11.556934667133664 2.644970564002068e-16 0 0 0
34 1 1.4146433750000018 13.01242484961066 1.4146433749999983 0 0 0
35 1 7.938678377456255e-16 11.556934667133666 2.829286749999996 0 0 0
36 1 1.414643374999996 13.012424849610662 4.243930125000003 0 0 0
98 1 4.243930124999995 10.101304043629394 1.4146433750000034 0 0 0
100 1 4.2439301250000065 10.101304043629392 4.243930125000001 0 0 0
105 1 2.8292867500000005 11.556934667133666 0 0 0 0
106 1 4.243930124999997 13.012424849610658 1.4146433750000011 0 0 0
107 1 2.829286750000004 11.556934667133664 2.8292867499999987 0 0 0
108 1 4.243930125000001 13.012424849610662 4.243930124999995 0 0 0
170 1 7.073216874999996 10.101304043629389 1.4146433750000005 0 0 0
172 1 7.073216874999996 10.10130404362939 4.243930125000002 0 0 0
177 1 5.658573500000004 11.556934667133666 11.317146999999997 0 0 -1
178 1 7.07321687500001 13.012424849610658 1.4146433750000034 0 0 0
179 1 5.658573499999994 11.556934667133673 2.8292867500000054 0 0 0
180 1 7.073216875000002 13.012424849610664 4.243930124999994 0 0 0
242 1 9.902503625000003 10.10130404362939 1.4146433750000003 0 0 0
244 1 9.902503625000003 10.101304043629385 4.243930125000004 0 0 0
249 1 8.48786025 11.556934667133671 11.317146999999999 0 0 -1
250 1 9.902503624999992 13.012424849610657 1.414643374999998 0 0 0
251 1 8.487860249999999 11.556934667133682 2.8292867499999974 0 0 0
252 1 9.902503624999996 13.01242484961066 4.243930124999999 0 0 0
41 1 2.4822079709808753e-15 14.470609996163303 11.317146999999997 0 0 -1
42 1 1.4146433750000036 15.928578112016943 1.4146433750000003 0 0 0
43 1 11.317146999999999 14.470609996163303 2.829286750000005 -1 0 0
44 1 1.4146433750000005 15.928578112016947 4.243930124999999 0 0 0
113 1 2.829286750000003 14.470609996163303 11.317146999999995 0 0 -1
114 1 4.243930124999994 15.928578112016941 1.4146433750000005 0 0 0
115 1 2.829286750000007 14.4706099961633 2.8292867499999996 0 0 0
116 1 4.243930124999996 15.92857811201694 4.243930124999994 0 0 0
185 1 5.658573500000003 14.470609996163306 11.317146999999997 0 0 -1
186 1 7.073216875000002 15.928578112016947 1.414643375000001 0 0 0
187 1 5.658573500000001 14.470609996163303 2.8292867500000067 0 0 0
188 1 7.0732168750000035 15.928578112016938 4.243930124999997 0 0 0
257 1 8.487860249999995 14.4706099961633 1.3292333370544142e-15 0 0 0
258 1 9.902503625000001 15.928578112016947 1.4146433750000025 0 0 0
259 1 8.487860249999994 14.4706099961633 2.829286750000005 0 0 0
260 1 9.902503624999996 15.928578112016941 4.243930125 0 0 0
49 1 2.760922567931842e-15 17.387974345059405 7.085679560194307e-16 0 0 0
50 1 1.4146433749999974 18.848825948529022 1.414643374999994 0 0 0
51 1 1.1984230953405486e-15 17.3879743450594 2.8292867499999983 0 0 0
52 1 1.414643374999998 18.84882594852902 4.243930125000002 0 0 0
57 1 0 20.30806255992213 11.317146999999999 0 0 -1
59 1 11.317146999999997 20.308062559922135 2.829286749999996 -1 0 0
121 1 2.8292867500000045 17.387974345059405 3.0808968048810443e-16 0 0 0
122 1 4.243930124999998 18.84882594852902 1.414643374999993 0 0 0
123 1 2.8292867500000027 17.387974345059394 2.8292867499999965 0 0 0
124 1 4.243930125000003 18.848825948529015 4.2439301249999986 0 0 0
129 1 2.8292867499999996 20.30806255992213 5.991739110473867e-16 0 0 0
131 1 2.829286750000002 20.308062559922135 2.8292867500000005 0 0 0
193 1 5.658573500000003 17.387974345059405 7.049915349641916e-16 0 0 0
194 1 7.073216875000003 18.84882594852902 1.4146433749999965 0 0 0
195 1 5.658573500000001 17.3879743450594 2.8292867499999956 0 0 0
196 1 7.0732168750000035 18.848825948529022 4.243930125 0 0 0
201 1 5.6585735 20.308062559922124 1.505606588019501e-15 0 0 0
203 1 5.658573500000003 20.30806255992213 2.829286749999998 0 0 0
265 1 8.487860249999995 17.387974345059405 11.317146999999999 0 0 -1
266 1 9.902503625 18.848825948529026 1.4146433749999998 0 0 0
267 1 8.48786025 17.3879743450594 2.829286749999992 0 0 0
268 1 9.902503624999996 18.848825948529022 4.243930125000004 0 0 0
273 1 8.487860250000002 20.30806255992212 4.079337755932325e-15 0 0 0
275 1 8.487860250000002 20.30806255992213 2.829286749999998 0 0 0
58 1 1.414643375 21.759136619445332 1.4146433749999967 0 0 0
60 1 1.4146433750000025 21.75913661944533 4.243930124999998 0 0 0
65 1 0 23.23429539404 0 0 0 0
66 1 1.414643375 24.648937423841 1.414643375 0 0 0
67 1 0 23.23429539404 2.82928675 0 0 0
68 1 1.414643375 24.648937423841 4.243930125 0 0 0
130 1 4.243930125000001 21.759136619445332 1.4146433749999996 0 0 0
132 1 4.243930125000006 21.759136619445336 4.243930124999996 0 0 0
137 1 2.82928675 23.23429539404 0 0 0 0
138 1 4.243930125 24.648937423841 1.414643375 0 0 0
139 1 2.82928675 23.23429539404 2.82928675 0 0 0
140 1 4.243930125 24.648937423841 4.243930125 0 0 0
202 1 7.073216875000003 21.75913661944533 1.4146433750000023 0 0 0
204 1 7.073216874999997 21.75913661944533 4.243930124999998 0 0 0
209 1 5.6585735 23.23429539404 0 0 0 0
210 1 7.073216875 24.648937423841 1.414643375 0 0 0
211 1 5.6585735 23.23429539404 2.82928675 0 0 0
212 1 7.073216875 24.648937423841 4.243930125 0 0 0
274 1 9.902503624999994 21.75913661944533 1.4146433750000016 0 0 0
276 1 9.902503624999998 21.759136619445325 4.243930124999995 0 0 0
281 1 8.48786025 23.23429539404 0 0 0 0
282 1 9.902503625 24.648937423841 1.414643375 0 0 0
283 1 8.48786025 23.23429539404 2.82928675 0 0 0
284 1 9.902503625 24.648937423841 4.243930125 0 0 0
5 1 0 0 5.6585735 0 0 0
6 1 1.414643375 1.414643557616 7.073216875 0 0 0
7 1 0 0 8.48786025 0 0 0
8 1 1.414643375 1.414643557616 9.902503625 0 0 0
13 1 0 2.82928660596 5.6585735 0 0 0
14 1 1.4146433749999985 4.2822774531706385 7.073216875000004 0 0 0
15 1 0 2.82928660596 8.48786025 0 0 0
16 1 1.414643374999996 4.282277453170643 9.902503625000005 0 0 0
77 1 2.82928675 0 5.6585735 0 0 0
78 1 4.243930125 1.414643557616 7.073216875 0 0 0
79 1 2.82928675 0 8.48786025 0 0 0
80 1 4.243930125 1.414643557616 9.902503625 0 0 0
85 1 2.82928675 2.82928660596 5.6585735 0 0 0
86 1 4.2439301249999986 4.28227745317064 7.0732168750000035 0 0 0
87 1 2.82928675 2.82928660596 8.48786025 0 0 0
88 1 4.2439301249999986 4.282277453170639 9.902503625 0 0 0
149 1 5.6585735 0 5.6585735 0 0 0
150 1 7.073216875 1.414643557616 7.073216875 0 0 0
151 1 5.6585735 0 8.48786025 0 0 0
152 1 7.073216875 1.414643557616 9.902503625 0 0 0
157 1 5.6585735 2.82928660596 5.6585735 0 0 0
158 1 7.073216875000007 4.282277453170638 7.073216875000001 0 0 0
159 1 5.6585735 2.82928660596 8.48786025 0 0 0
160 1 7.0732168750000035 4.28227745317064 9.902503625000001 0 0 0
221 1 8.48786025 0 5.6585735 0 0 0
222 1 9.902503625 1.414643557616 7.073216875 0 0 0
223 1 8.48786025 0 8.48786025 0 0 0
224 1 9.902503625 1.414643557616 9.902503625 0 0 0
229 1 8.48786025 2.82928660596 5.6585735 0 0 0
230 1 9.902503624999996 4.282277453170643 7.073216875 0 0 0
231 1 8.48786025 2.82928660596 8.48786025 0 0 0
232 1 9.902503625000003 4.282277453170645 9.902503625000001 0 0 0
21 1 0 5.734336762489278 5.658573499999995 0 0 0
22 1 1.414643374999997 7.191576989752733 7.073216875000001 0 0 0
23 1 3.6035260975579276e-15 5.734336762489274 8.487860250000002 0 0 0
24 1 1.414643375000001 7.191576989752727 9.902503625000005 0 0 0
29 1 0 8.645873376153547 5.658573500000001 0 0 0
31 1 2.207545437118475e-15 8.645873376153547 8.487860249999997 0 0 0
93 1 2.829286750000001 5.734336762489277 5.658573499999996 0 0 0
94 1 4.243930125000002 7.191576989752731 7.0732168750000035 0 0 0
95 1 2.8292867499999996 5.734336762489273 8.487860250000006 0 0 0
96 1 4.243930125 7.191576989752726 9.902503624999996 0 0 0
101 1 2.8292867499999943 8.645873376153547 5.658573499999998 0 0 0
103 1 2.8292867499999983 8.645873376153547 8.48786025 0 0 0
165 1 5.658573499999999 5.73433676248928 5.658573499999991 0 0 0
166 1 7.073216875000003 7.191576989752734 7.073216875000002 0 0 0
167 1 5.658573499999996 5.734336762489279 8.48786025000001 0 0 0
168 1 7.073216875000002 7.1915769897527335 9.902503624999998 0 0 0
173 1 5.6585735 8.645873376153542 5.658573499999997 0 0 0
175 1 5.658573500000001 8.645873376153542 8.487860250000002 0 0 0
237 1 8.48786025 5.734336762489278 5.658573499999999 0 0 0
238 1 9.902503624999996 7.191576989752738 7.073216874999996 0 0 0
239 1 8.48786025 5.73433676248928 8.487860250000006 0 0 0
240 1 9.902503624999996 7.1915769897527335 9.902503625000003 0 0 0
245 1 8.487860250000004 8.645873376153542 5.658573500000006 0 0 0
247 1 8.487860249999995 8.645873376153538 8.48786025 0 0 0
30 1 1.4146433749999936 10.101304043629384 7.073216875000001 0 0 0
32 1 1.4146433750000014 10.101304043629385 9.902503625 0 0 0
37 1 1.3908620903449565e-15 11.556934667133666 5.6585735000000055 0 0 0
38 1 1.414643374999994 13.012424849610658 7.073216875000003 0 0 0
39 1 1.2902787633430195e-15 11.55693466713367 8.487860249999992 0 0 0
40 1 1.4146433750000018 13.01242484961066 9.902503624999998 0 0 0
102 1 4.243930125000004 10.10130404362939 7.073216875000001 0 0 0
104 1 4.243930124999999 10.101304043629392 9.902503624999996 0 0 0
109 1 2.8292867500000045 11.556934667133667 5.658573500000001 0 0 0
110 1 4.243930125 13.012424849610658 7.073216875000004 0 0 0
111 1 2.8292867500000014 11.556934667133673 8.487860250000002 0 0 0
112 1 4.243930124999997 13.01242484961066 9.902503625000001 0 0 0
174 1 7.073216874999998 10.101304043629389 7.073216874999997 0 0 0
176 1 7.0732168749999955 10.101304043629385 9.902503624999994 0 0 0
181 1 5.658573500000002 11.556934667133666 5.6585735 0 0 0
182 1 7.073216874999999 13.012424849610653 7.073216874999995 0 0 0
183 1 5.658573499999997 11.55693466713367 8.487860249999997 0 0 0
184 1 7.073216875000003 13.01242484961066 9.902503624999998 0 0 0
246 1 9.902503625000005 10.101304043629389 7.073216874999997 0 0 0
248 1 9.902503625000001 10.101304043629384 9.902503624999998 0 0 0
253 1 8.487860249999997 11.556934667133671 5.658573500000001 0 0 0
254 1 9.902503625000001 13.012424849610657 7.073216875000002 0 0 0
255 1 8.48786025 11.556934667133671 8.487860250000002 0 0 0
256 1 9.902503624999998 13.012424849610664 9.902503624999996 0 0 0
45 1 11.317146999999999 14.4706099961633 5.658573500000003 -1 0 0
46 1 1.4146433750000007 15.928578112016945 7.073216875000003 0 0 0
47 1 0 14.470609996163299 8.48786025 0 0 0
48 1 1.4146433749999996 15.928578112016945 9.902503625000003 0 0 0
117 1 2.829286749999998 14.4706099961633 5.658573499999996 0 0 0
118 1 4.243930125000001 15.928578112016947 7.073216874999997 0 0 0
119 1 2.829286750000003 14.470609996163294 8.48786025 0 0 0
120 1 4.243930125000001 15.928578112016941 9.902503625000005 0 0 0
189 1 5.6585735 14.470609996163297 5.658573499999996 0 0 0
190 1 7.073216875000006 15.928578112016952 7.073216875000002 0 0 0
191 1 5.658573499999996 14.470609996163299 8.487860250000002 0 0 0
192 1 7.073216875000005 15.928578112016947 9.902503624999998 0 0 0
261 1 8.487860249999999 14.4706099961633 5.658573499999994 0 0 0
262 1 9.902503624999994 15.928578112016945 7.073216875000001 0 0 0
263 1 8.487860250000004 14.470609996163304 8.487860250000002 0 0 0
264 1 9.902503624999998 15.928578112016949 9.902503624999992 0 0 0
53 1 11.317146999999999 17.387974345059405 5.658573500000002 -1 0 0
54 1 1.4146433749999994 18.848825948529022 7.073216874999995 0 0 0
55 1 11.317146999999995 17.3879743450594 8.487860250000006 -1 0 0
56 1 1.414643375000001 18.848825948529022 9.902503625000003 0 0 0
61 1 11.317146999999997 20.308062559922124 5.658573500000004 -1 0 0
63 1 0 20.308062559922135 8.487860249999999 0 0 0
125 1 2.829286750000003 17.3879743450594 5.658573500000003 0 0 0
126 1 4.243930125000003 18.848825948529015 7.073216874999997 0 0 0
127 1 2.8292867499999996 17.387974345059405 8.487860250000004 0 0 0
128 1 4.243930125 18.848825948529022 9.902503625000005 0 0 0
133 1 2.829286749999995 20.308062559922128 5.658573500000006 0 0 0
135 1 2.829286749999995 20.308062559922128 8.487860250000004 0 0 0
197 1 5.6585735 17.3879743450594 5.658573500000005 0 0 0
198 1 7.0732168750000035 18.84882594852902 7.073216875000002 0 0 0
199 1 5.658573500000004 17.387974345059405 8.487860249999999 0 0 0
200 1 7.0732168750000035 18.848825948529015 9.902503625000003 0 0 0
205 1 5.658573499999999 20.308062559922135 5.6585735 0 0 0
207 1 5.658573499999996 20.308062559922128 8.487860250000004 0 0 0
269 1 8.48786025 17.38797434505941 5.658573500000005 0 0 0
270 1 9.902503624999996 18.848825948529022 7.073216874999994 0 0 0
271 1 8.487860249999999 17.3879743450594 8.487860250000004 0 0 0
272 1 9.902503625000001 18.848825948529022 9.902503625000005 0 0 0
277 1 8.487860250000006 20.308062559922124 5.658573500000002 0 0 0
279 1 8.487860249999999 20.308062559922128 8.487860249999999 0 0 0
62 1 1.414643374999999 21.75913661944533 7.073216875000005 0 0 0
64 1 1.414643375000003 21.759136619445332 9.902503624999996 0 0 0
69 1 0 23.23429539404 5.6585735 0 0 0
70 1 1.414643375 24.648937423841 7.073216875 0 0 0
71 1 0 23.23429539404 8.48786025 0 0 0
72 1 1.414643375 24.648937423841 9.902503625 0 0 0
134 1 4.243930125000002 21.759136619445336 7.0732168750000035 0 0 0
136 1 4.243930124999999 21.759136619445325 9.902503624999998 0 0 0
141 1 2.82928675 23.23429539404 5.6585735 0 0 0
142 1 4.243930125 24.648937423841 7.073216875 0 0 0
143 1 2.82928675 23.23429539404 8.48786025 0 0 0
144 1 4.243930125 24.648937423841 9.902503625 0 0 0
206 1 7.0732168750000035 21.759136619445332 7.073216875000003 0 0 0
208 1 7.073216875 21.75913661944533 9.902503624999998 0 0 0
213 1 5.6585735 23.23429539404 5.6585735 0 0 0
214 1 7.073216875 24.648937423841 7.073216875 0 0 0
215 1 5.6585735 23.23429539404 8.48786025 0 0 0
216 1 7.073216875 24.648937423841 9.902503625 0 0 0
278 1 9.902503625 21.759136619445325 7.0732168750000035 0 0 0
280 1 9.902503625000001 21.759136619445332 9.902503625 0 0 0
285 1 8.48786025 23.23429539404 5.6585735 0 0 0
286 1 9.902503625 24.648937423841 7.073216875 0 0 0
287 1 8.48786025 23.23429539404 8.48786025 0 0 0
288 1 9.902503625 24.648937423841 9.902503625 0 0 0

Velocities

1 0 0 0
2 0 0 0
3 0 0 0
4 0 0 0
9 0 0 0
10 0 0 0
11 0 0 0
12 0 0 0
73 0 0 0
74 0 0 0
75 0 0 0
76 0 0 0
81 0 0 0
82 0 0 0
83 0 0 0
84 0 0 0
145 0 0 0
146 0 0 0
147 0 0 0
148 0 0 0
153 0 0 0
154 0 0 0
155 0 0 0
156 0 0 0
217 0 0 0
218 0 0 0
219 0 0 0
220 0 0 0
225 0 0 0
226 0 0 0
227 0 0 0
228 0 0 0
17 0 0 0
18 0 0 0
19 0 0 0
20 0 0 0
25 0 0 0
27 0 0 0
89 0 0 0
90 0 0 0
91 0 0 0
92 0 0 0
97 0 0 0
99 0 0 0
161 0 0 0
162 0 0 0
163 0 0 0
164 0 0 0
169 0 0 0
171 0 0 0
233 0 0 0
234 0 0 0
235 0 0 0
236 0 0 0
241 0 0 0
243 0 0 0
26 0 0 0
28 0 0 0
33 0 0 0
34 0 0 0
35 0 0 0
36 0 0 0
98 0 0 0
100 0 0 0
105 0 0 0
106 0 0 0
107 0 0 0
108 0 0 0
170 0 0 0
172 0 0 0
177 0 0 0
178 0 0 0
179 0 0 0
180 0 0 0
242 0 0 0
244 0 0 0
249 0 0 0
250 0 0 0
251 0 0 0
252 0 0 0
41 0 0 0
42 0 0 0
43 0 0 0
44 0 0 0
113 0 0 0
114 0 0 0
115 0 0 0
116 0 0 0
185 0 0 0
186 0 0 0
187 0 0 0
188 0 0 0
257 0 0 0
258 0 0 0
259 0 0 0
260 0 0 0
49 0 0 0
50 0 0 0
51 0 0 0
52 0 0 0
57 0 0 0
59 0 0 0
121 0 0 0
122 0 0 0
123 0 0 0
124 0 0 0
129 0 0 0
131 0 0 0
193 0 0 0
194 0 0 0
195 0 0 0
196 0 0 0
201 0 0 0
203 0 0 0
265 0 0 0
266 0 0 0
267 0 0 0
268 0 0 0
273 0 0 0
275 0 0 0
58 0 0 0
60 0 0 0
65 0 0 0
66 0 0 0
67 0 0 0
68 0 0 0
130 0 0 0
132 0 0 0
137 0 0 0
138 0 0 0
139 0 0 0
140 0 0 0
202 0 0 0
204 0 0 0
209 0 0 0
210 0 0 0
211 0 0 0
212 0 0 0
274 0 0 0
276 0 0 0
281 0 0 0
282 0 0 0
283 0 0 0
284 0 0 0
5 0 0 0
6 0 0 0
7 0 0 0
8 0 0 0
13 0 0 0
14 0 0 0
15 0 0 0
16 0 0 0
77 0 0 0
78 0 0 0
79 0 0 0
80 0 0 0
85 0 0 0
86 0 0 0
87 0 0 0
88 0 0 0
149 0 0 0
150 0 0 0
151 0 0 0
152 0 0 0
157 0 0 0
158 0 0 0
159 0 0 0
160 0 0 0
221 0 0 0
222 0 0 0
223 0 0 0
224 0 0 0
229 0 0 0
230 0 0 0
231 0 0 0
232 0 0 0
21 0 0 0
22 0 0 0
23 0 0 0
24 0 0 0
29 0 0 0
31 0 0 0
93 0 0 0
94 0 0 0
95 0 0 0
96 0 0 0
101 0 0 0
103 0 0 0
165 0 0 0
166 0 0 0
167 0 0 0
168 0 0 0
173 0 0 0
175 0 0 0
237 0 0 0
238 0 0 0
239 0 0 0
240 0 0 0
245 0 0 0
247 0 0 0
30 0 0 0
32 0 0 0
37 0 0 0
38 0 0 0
39 0 0 0
40 0 0 0
102 0 0 0
104 0 0 0
109 0 0 0
110 0 0 0
111 0 0 0
112 0 0 0
174 0 0 0
176 0 0 0
181 0 0 0
182 0 0 0
183 0 0 0
184 0 0 0
246 0 0 0
248 0 0 0
253 0 0 0
254 0 0 0
255 0 0 0
256 0 0 0
45 0 0 0
46 0 0 0
47 0 0 0
48 0 0 0
117 0 0 0
118 0 0 0
119 0 0 0
120 0 0 0
189 0 0 0
190 0 0 0
191 0 0 0
192 0 0 0
261 0 0 0
262 0 0 0
263 0 0 0
264 0 0 0
53 0 0 0
54 0 0 0
55 0 0 0
56 0 0 0
61 0 0 0
63 0 0 0
125 0 0 0
126 0 0 0
127 0 0 0
128 0 0 0
133 0 0 0
135 0 0 0
197 0 0 0
198 0 0 0
199 0 0 0
200 0 0 0
205 0 0 0
207 0 0 0
269 0 0 0
270 0 0 0
271 0 0 0
272 0 0 0
277 0 0 0
279 0 0 0
62 0 0 0
64 0 0 0
69 0 0 0
70 0 0 0
71 0 0 0
72 0 0 0
134 0 0 0
136 0 0 0
141 0 0 0
142 0 0 0
143 0 0 0
144 0 0 0
206 0 0 0
208 0 0 0
213 0 0 0
214 0 0 0
215 0 0 0
216 0 0 0
278 0 0 0
280 0 0 0
285 0 0 0
286 0 0 0
287 0 0 0
288 0 0 0
