 # File generated with Atomsk by user on 2025-01-25 19:03:29
  
       11271  atoms
           1  atom types
 
      0.000000000000      79.220032000000  xlo xhi
      0.000000000000     136.041339000000  ylo yhi
      0.000000000000      12.003648000000  zlo zhi
 
Masses
 
            1   55.84500000             # Fe
 
Atoms # atomic
 
         1    1        0.000000000000       0.000000000000       0.000000000000
         2    1        0.000000000000       2.000607606373       2.000608400122
         3    1        1.414643202228       0.000000000000       2.000608400122
         4    1        1.414643202228       2.000607606373       0.000000000000
         5    1        0.000000000000       0.000000000000       4.001215599878
         6    1        0.000000000000       2.000607606373       6.001824000000
         7    1        1.414643202228       0.000000000000       6.001824000000
         8    1        1.414643202228       2.000607606373       4.001215599878
         9    1        0.000000000000       0.000000000000       8.002432400122
        10    1        0.000000000000       2.000607606373      10.003039599878
        11    1        1.414643202228       0.000000000000      10.003039599878
        12    1        1.414643202228       2.000607606373       8.002432400122
        13    1        0.000000000000       4.001215212747       0.000000000000
        14    1        0.000000000000       6.001824179533       2.000608400122
        15    1        1.414643202228       4.001215212747       2.000608400122
        16    1        1.414643202228       6.001824179533       0.000000000000
        17    1        0.000000000000       4.001215212747       4.001215599878
        18    1        0.000000000000       6.001824179533       6.001824000000
        19    1        1.414643202228       4.001215212747       6.001824000000
        20    1        1.414643202228       6.001824179533       4.001215599878
        21    1        0.000000000000       4.001215212747       8.002432400122
        22    1        0.000000000000       6.001824179533      10.003039599878
        23    1        1.414643202228       4.001215212747      10.003039599878
        24    1        1.414643202228       6.001824179533       8.002432400122
        25    1        0.000000000000       8.002431785907       0.000000000000
        26    1        0.000000000000      10.003039392280       2.000608400122
        27    1        1.414643202228       8.002431785907       2.000608400122
        28    1        1.414643202228      10.003039392280       0.000000000000
        29    1        0.000000000000       8.002431785907       4.001215599878
        30    1        0.000000000000      10.003039392280       6.001824000000
        31    1        1.414643202228       8.002431785907       6.001824000000
        32    1        1.414643202228      10.003039392280       4.001215599878
        33    1        0.000000000000       8.002431785907       8.002432400122
        34    1        0.000000000000      10.003039392280      10.003039599878
        35    1        1.414643202228       8.002431785907      10.003039599878
        36    1        1.414643202228      10.003039392280       8.002432400122
        37    1        0.000000000000      12.003646998653       0.000000000000
        38    1        0.000000000000      14.004258686267       2.000608400122
        39    1        1.414643202228      12.003646998653       2.000608400122
        40    1        1.414643202228      14.004258686267       0.000000000000
        41    1        0.000000000000      12.003646998653       4.001215599878
        42    1        0.000000000000      14.004258686267       6.001824000000
        43    1        1.414643202228      12.003646998653       6.001824000000
        44    1        1.414643202228      14.004258686267       4.001215599878
        45    1        0.000000000000      12.003646998653       8.002432400122
        46    1        0.000000000000      14.004258686267      10.003039599878
        47    1        1.414643202228      12.003646998653      10.003039599878
        48    1        1.414643202228      14.004258686267       8.002432400122
        49    1        0.000000000000      16.004869013467       0.000000000000
        50    1        0.000000000000      18.005465736533       2.000608400122
        51    1        1.414643202228      16.004869013467       2.000608400122
        52    1        1.414643202228      18.005465736533       0.000000000000
        53    1        0.000000000000      16.004869013467       4.001215599878
        54    1        0.000000000000      18.005465736533       6.001824000000
        55    1        1.414643202228      16.004869013467       6.001824000000
        56    1        1.414643202228      18.005465736533       4.001215599878
        57    1        0.000000000000      16.004869013467       8.002432400122
        58    1        0.000000000000      18.005465736533      10.003039599878
        59    1        1.414643202228      16.004869013467      10.003039599878
        60    1        1.414643202228      18.005465736533       8.002432400122
        61    1        0.000000000000      20.006076063733       0.000000000000
        62    1        0.000000000000      22.006686390933       2.000608400122
        63    1        1.414643202228      20.006076063733       2.000608400122
        64    1        1.414643202228      22.006686390933       0.000000000000
        65    1        0.000000000000      20.006076063733       4.001215599878
        66    1        0.000000000000      22.006686390933       6.001824000000
        67    1        1.414643202228      20.006076063733       6.001824000000
        68    1        1.414643202228      22.006686390933       4.001215599878
        69    1        0.000000000000      20.006076063733       8.002432400122
        70    1        0.000000000000      22.006686390933      10.003039599878
        71    1        1.414643202228      20.006076063733      10.003039599878
        72    1        1.414643202228      22.006686390933       8.002432400122
        73    1        0.000000000000      24.007296718133       0.000000000000
        74    1        0.000000000000      26.007907045333       2.000608400122
        75    1        1.414643202228      24.007296718133       2.000608400122
        76    1        1.414643202228      26.007907045333       0.000000000000
        77    1        0.000000000000      24.007296718133       4.001215599878
        78    1        0.000000000000      26.007907045333       6.001824000000
        79    1        1.414643202228      24.007296718133       6.001824000000
        80    1        1.414643202228      26.007907045333       4.001215599878
        81    1        0.000000000000      24.007296718133       8.002432400122
        82    1        0.000000000000      26.007907045333      10.003039599878
        83    1        1.414643202228      24.007296718133      10.003039599878
        84    1        1.414643202228      26.007907045333       8.002432400122
        85    1        0.000000000000      28.008517372534       0.000000000000
        86    1        0.000000000000      30.009114095600       2.000608400122
        87    1        1.414643202228      28.008517372534       2.000608400122
        88    1        1.414643202228      30.009114095600       0.000000000000
        89    1        0.000000000000      28.008517372534       4.001215599878
        90    1        0.000000000000      30.009114095600       6.001824000000
        91    1        1.414643202228      28.008517372534       6.001824000000
        92    1        1.414643202228      30.009114095600       4.001215599878
        93    1        0.000000000000      28.008517372534       8.002432400122
        94    1        0.000000000000      30.009114095600      10.003039599878
        95    1        1.414643202228      28.008517372534      10.003039599878
        96    1        1.414643202228      30.009114095600       8.002432400122
        97    1        0.000000000000      32.009724422800       0.000000000000
        98    1        0.000000000000      34.010334750000       2.000608400122
        99    1        1.414643202228      32.009724422800       2.000608400122
       100    1        1.414643202228      34.010334750000       0.000000000000
       101    1        0.000000000000      32.009724422800       4.001215599878
       102    1        0.000000000000      34.010334750000       6.001824000000
       103    1        1.414643202228      32.009724422800       6.001824000000
       104    1        1.414643202228      34.010334750000       4.001215599878
       105    1        0.000000000000      32.009724422800       8.002432400122
       106    1        0.000000000000      34.010334750000      10.003039599878
       107    1        1.414643202228      32.009724422800      10.003039599878
       108    1        1.414643202228      34.010334750000       8.002432400122
       109    1        0.000000000000      36.010945077200       0.000000000000
       110    1        0.000000000000      38.011555404400       2.000608400122
       111    1        1.414643202228      36.010945077200       2.000608400122
       112    1        1.414643202228      38.011555404400       0.000000000000
       113    1        0.000000000000      36.010945077200       4.001215599878
       114    1        0.000000000000      38.011555404400       6.001824000000
       115    1        1.414643202228      36.010945077200       6.001824000000
       116    1        1.414643202228      38.011555404400       4.001215599878
       117    1        0.000000000000      36.010945077200       8.002432400122
       118    1        0.000000000000      38.011555404400      10.003039599878
       119    1        1.414643202228      36.010945077200      10.003039599878
       120    1        1.414643202228      38.011555404400       8.002432400122
       121    1        0.000000000000      40.012152127466       0.000000000000
       122    1        0.000000000000      42.012762454666       2.000608400122
       123    1        1.414643202228      40.012152127466       2.000608400122
       124    1        1.414643202228      42.012762454666       0.000000000000
       125    1        0.000000000000      40.012152127466       4.001215599878
       126    1        0.000000000000      42.012762454666       6.001824000000
       127    1        1.414643202228      40.012152127466       6.001824000000
       128    1        1.414643202228      42.012762454666       4.001215599878
       129    1        0.000000000000      40.012152127466       8.002432400122
       130    1        0.000000000000      42.012762454666      10.003039599878
       131    1        1.414643202228      40.012152127466      10.003039599878
       132    1        1.414643202228      42.012762454666       8.002432400122
       133    1        0.000000000000      44.013372781867       0.000000000000
       134    1        0.000000000000      46.013983109067       2.000608400122
       135    1        1.414643202228      44.013372781867       2.000608400122
       136    1        1.414643202228      46.013983109067       0.000000000000
       137    1        0.000000000000      44.013372781867       4.001215599878
       138    1        0.000000000000      46.013983109067       6.001824000000
       139    1        1.414643202228      44.013372781867       6.001824000000
       140    1        1.414643202228      46.013983109067       4.001215599878
       141    1        0.000000000000      44.013372781867       8.002432400122
       142    1        0.000000000000      46.013983109067      10.003039599878
       143    1        1.414643202228      44.013372781867      10.003039599878
       144    1        1.414643202228      46.013983109067       8.002432400122
       145    1        0.000000000000      48.014593436267       0.000000000000
       146    1        0.000000000000      50.015203763467       2.000608400122
       147    1        1.414643202228      48.014593436267       2.000608400122
       148    1        1.414643202228      50.015203763467       0.000000000000
       149    1        0.000000000000      48.014593436267       4.001215599878
       150    1        0.000000000000      50.015203763467       6.001824000000
       151    1        1.414643202228      48.014593436267       6.001824000000
       152    1        1.414643202228      50.015203763467       4.001215599878
       153    1        0.000000000000      48.014593436267       8.002432400122
       154    1        0.000000000000      50.015203763467      10.003039599878
       155    1        1.414643202228      48.014593436267      10.003039599878
       156    1        1.414643202228      50.015203763467       8.002432400122
       157    1        0.000000000000      52.015800486533       0.000000000000
       158    1        0.000000000000      54.016410813733       2.000608400122
       159    1        1.414643202228      52.015800486533       2.000608400122
       160    1        1.414643202228      54.016410813733       0.000000000000
       161    1        0.000000000000      52.015800486533       4.001215599878
       162    1        0.000000000000      54.016410813733       6.001824000000
       163    1        1.414643202228      52.015800486533       6.001824000000
       164    1        1.414643202228      54.016410813733       4.001215599878
       165    1        0.000000000000      52.015800486533       8.002432400122
       166    1        0.000000000000      54.016410813733      10.003039599878
       167    1        1.414643202228      52.015800486533      10.003039599878
       168    1        1.414643202228      54.016410813733       8.002432400122
       169    1        0.000000000000      56.017021140933       0.000000000000
       170    1        0.000000000000      58.017631468133       2.000608400122
       171    1        1.414643202228      56.017021140933       2.000608400122
       172    1        1.414643202228      58.017631468133       0.000000000000
       173    1        0.000000000000      56.017021140933       4.001215599878
       174    1        0.000000000000      58.017631468133       6.001824000000
       175    1        1.414643202228      56.017021140933       6.001824000000
       176    1        1.414643202228      58.017631468133       4.001215599878
       177    1        0.000000000000      56.017021140933       8.002432400122
       178    1        0.000000000000      58.017631468133      10.003039599878
       179    1        1.414643202228      56.017021140933      10.003039599878
       180    1        1.414643202228      58.017631468133       8.002432400122
       181    1        0.000000000000      60.018241795334       0.000000000000
       182    1        0.000000000000      62.018852122534       2.000608400122
       183    1        1.414643202228      60.018241795334       2.000608400122
       184    1        1.414643202228      62.018852122534       0.000000000000
       185    1        0.000000000000      60.018241795334       4.001215599878
       186    1        0.000000000000      62.018852122534       6.001824000000
       187    1        1.414643202228      60.018241795334       6.001824000000
       188    1        1.414643202228      62.018852122534       4.001215599878
       189    1        0.000000000000      60.018241795334       8.002432400122
       190    1        0.000000000000      62.018852122534      10.003039599878
       191    1        1.414643202228      60.018241795334      10.003039599878
       192    1        1.414643202228      62.018852122534       8.002432400122
       193    1        0.000000000000      64.019448845600       0.000000000000
       194    1        1.414643202228      64.019448845600       2.000608400122
       195    1        0.000000000000      64.019448845600       4.001215599878
       196    1        1.414643202228      64.019448845600       6.001824000000
       197    1        0.000000000000      64.019448845600       8.002432400122
       198    1        1.414643202228      64.019448845600      10.003039599878
       199    1        0.000000000000      72.021890154400       0.000000000000
       200    1        0.000000000000      74.022486877466       2.000608400122
       201    1        1.414643202228      72.021890154400       2.000608400122
       202    1        1.414643202228      74.022486877466       0.000000000000
       203    1        0.000000000000      72.021890154400       4.001215599878
       204    1        0.000000000000      74.022486877466       6.001824000000
       205    1        1.414643202228      72.021890154400       6.001824000000
       206    1        1.414643202228      74.022486877466       4.001215599878
       207    1        0.000000000000      72.021890154400       8.002432400122
       208    1        0.000000000000      74.022486877466      10.003039599878
       209    1        1.414643202228      72.021890154400      10.003039599878
       210    1        1.414643202228      74.022486877466       8.002432400122
       211    1        0.000000000000      76.023097204666       0.000000000000
       212    1        0.000000000000      78.023707531867       2.000608400122
       213    1        1.414643202228      76.023097204666       2.000608400122
       214    1        1.414643202228      78.023707531867       0.000000000000
       215    1        0.000000000000      76.023097204666       4.001215599878
       216    1        0.000000000000      78.023707531867       6.001824000000
       217    1        1.414643202228      76.023097204666       6.001824000000
       218    1        1.414643202228      78.023707531867       4.001215599878
       219    1        0.000000000000      76.023097204666       8.002432400122
       220    1        0.000000000000      78.023707531867      10.003039599878
       221    1        1.414643202228      76.023097204666      10.003039599878
       222    1        1.414643202228      78.023707531867       8.002432400122
       223    1        0.000000000000      80.024317859067       0.000000000000
       224    1        0.000000000000      82.024928186267       2.000608400122
       225    1        1.414643202228      80.024317859067       2.000608400122
       226    1        1.414643202228      82.024928186267       0.000000000000
       227    1        0.000000000000      80.024317859067       4.001215599878
       228    1        0.000000000000      82.024928186267       6.001824000000
       229    1        1.414643202228      80.024317859067       6.001824000000
       230    1        1.414643202228      82.024928186267       4.001215599878
       231    1        0.000000000000      80.024317859067       8.002432400122
       232    1        0.000000000000      82.024928186267      10.003039599878
       233    1        1.414643202228      80.024317859067      10.003039599878
       234    1        1.414643202228      82.024928186267       8.002432400122
       235    1        0.000000000000      84.025538513467       0.000000000000
       236    1        0.000000000000      86.026135236533       2.000608400122
       237    1        1.414643202228      84.025538513467       2.000608400122
       238    1        1.414643202228      86.026135236533       0.000000000000
       239    1        0.000000000000      84.025538513467       4.001215599878
       240    1        0.000000000000      86.026135236533       6.001824000000
       241    1        1.414643202228      84.025538513467       6.001824000000
       242    1        1.414643202228      86.026135236533       4.001215599878
       243    1        0.000000000000      84.025538513467       8.002432400122
       244    1        0.000000000000      86.026135236533      10.003039599878
       245    1        1.414643202228      84.025538513467      10.003039599878
       246    1        1.414643202228      86.026135236533       8.002432400122
       247    1        0.000000000000      88.026745563733       0.000000000000
       248    1        0.000000000000      90.027355890933       2.000608400122
       249    1        1.414643202228      88.026745563733       2.000608400122
       250    1        1.414643202228      90.027355890933       0.000000000000
       251    1        0.000000000000      88.026745563733       4.001215599878
       252    1        0.000000000000      90.027355890933       6.001824000000
       253    1        1.414643202228      88.026745563733       6.001824000000
       254    1        1.414643202228      90.027355890933       4.001215599878
       255    1        0.000000000000      88.026745563733       8.002432400122
       256    1        0.000000000000      90.027355890933      10.003039599878
       257    1        1.414643202228      88.026745563733      10.003039599878
       258    1        1.414643202228      90.027355890933       8.002432400122
       259    1        0.000000000000      92.027966218133       0.000000000000
       260    1        0.000000000000      94.028576545333       2.000608400122
       261    1        1.414643202228      92.027966218133       2.000608400122
       262    1        1.414643202228      94.028576545333       0.000000000000
       263    1        0.000000000000      92.027966218133       4.001215599878
       264    1        0.000000000000      94.028576545333       6.001824000000
       265    1        1.414643202228      92.027966218133       6.001824000000
       266    1        1.414643202228      94.028576545333       4.001215599878
       267    1        0.000000000000      92.027966218133       8.002432400122
       268    1        0.000000000000      94.028576545333      10.003039599878
       269    1        1.414643202228      92.027966218133      10.003039599878
       270    1        1.414643202228      94.028576545333       8.002432400122
       271    1        0.000000000000      96.029186872534       0.000000000000
       272    1        0.000000000000      98.029783595600       2.000608400122
       273    1        1.414643202228      96.029186872534       2.000608400122
       274    1        1.414643202228      98.029783595600       0.000000000000
       275    1        0.000000000000      96.029186872534       4.001215599878
       276    1        0.000000000000      98.029783595600       6.001824000000
       277    1        1.414643202228      96.029186872534       6.001824000000
       278    1        1.414643202228      98.029783595600       4.001215599878
       279    1        0.000000000000      96.029186872534       8.002432400122
       280    1        0.000000000000      98.029783595600      10.003039599878
       281    1        1.414643202228      96.029186872534      10.003039599878
       282    1        1.414643202228      98.029783595600       8.002432400122
       283    1        0.000000000000     100.030393922800       0.000000000000
       284    1        0.000000000000     102.031004250000       2.000608400122
       285    1        1.414643202228     100.030393922800       2.000608400122
       286    1        1.414643202228     102.031004250000       0.000000000000
       287    1        0.000000000000     100.030393922800       4.001215599878
       288    1        0.000000000000     102.031004250000       6.001824000000
       289    1        1.414643202228     100.030393922800       6.001824000000
       290    1        1.414643202228     102.031004250000       4.001215599878
       291    1        0.000000000000     100.030393922800       8.002432400122
       292    1        0.000000000000     102.031004250000      10.003039599878
       293    1        1.414643202228     100.030393922800      10.003039599878
       294    1        1.414643202228     102.031004250000       8.002432400122
       295    1        0.000000000000     104.031614577200       0.000000000000
       296    1        0.000000000000     106.032224904400       2.000608400122
       297    1        1.414643202228     104.031614577200       2.000608400122
       298    1        1.414643202228     106.032224904400       0.000000000000
       299    1        0.000000000000     104.031614577200       4.001215599878
       300    1        0.000000000000     106.032224904400       6.001824000000
       301    1        1.414643202228     104.031614577200       6.001824000000
       302    1        1.414643202228     106.032224904400       4.001215599878
       303    1        0.000000000000     104.031614577200       8.002432400122
       304    1        0.000000000000     106.032224904400      10.003039599878
       305    1        1.414643202228     104.031614577200      10.003039599878
       306    1        1.414643202228     106.032224904400       8.002432400122
       307    1        0.000000000000     108.032821627466       0.000000000000
       308    1        0.000000000000     110.033431954666       2.000608400122
       309    1        1.414643202228     108.032821627466       2.000608400122
       310    1        1.414643202228     110.033431954666       0.000000000000
       311    1        0.000000000000     108.032821627466       4.001215599878
       312    1        0.000000000000     110.033431954666       6.001824000000
       313    1        1.414643202228     108.032821627466       6.001824000000
       314    1        1.414643202228     110.033431954666       4.001215599878
       315    1        0.000000000000     108.032821627466       8.002432400122
       316    1        0.000000000000     110.033431954666      10.003039599878
       317    1        1.414643202228     108.032821627466      10.003039599878
       318    1        1.414643202228     110.033431954666       8.002432400122
       319    1        0.000000000000     112.034042281867       0.000000000000
       320    1        0.000000000000     114.034652609067       2.000608400122
       321    1        1.414643202228     112.034042281867       2.000608400122
       322    1        1.414643202228     114.034652609067       0.000000000000
       323    1        0.000000000000     112.034042281867       4.001215599878
       324    1        0.000000000000     114.034652609067       6.001824000000
       325    1        1.414643202228     112.034042281867       6.001824000000
       326    1        1.414643202228     114.034652609067       4.001215599878
       327    1        0.000000000000     112.034042281867       8.002432400122
       328    1        0.000000000000     114.034652609067      10.003039599878
       329    1        1.414643202228     112.034042281867      10.003039599878
       330    1        1.414643202228     114.034652609067       8.002432400122
       331    1        0.000000000000     116.035262936267       0.000000000000
       332    1        0.000000000000     118.035873263467       2.000608400122
       333    1        1.414643202228     116.035262936267       2.000608400122
       334    1        1.414643202228     118.035873263467       0.000000000000
       335    1        0.000000000000     116.035262936267       4.001215599878
       336    1        0.000000000000     118.035873263467       6.001824000000
       337    1        1.414643202228     116.035262936267       6.001824000000
       338    1        1.414643202228     118.035873263467       4.001215599878
       339    1        0.000000000000     116.035262936267       8.002432400122
       340    1        0.000000000000     118.035873263467      10.003039599878
       341    1        1.414643202228     116.035262936267      10.003039599878
       342    1        1.414643202228     118.035873263467       8.002432400122
       343    1        0.000000000000     120.036469986533       0.000000000000
       344    1        0.000000000000     122.037080313733       2.000608400122
       345    1        1.414643202228     120.036469986533       2.000608400122
       346    1        1.414643202228     122.037080313733       0.000000000000
       347    1        0.000000000000     120.036469986533       4.001215599878
       348    1        0.000000000000     122.037080313733       6.001824000000
       349    1        1.414643202228     120.036469986533       6.001824000000
       350    1        1.414643202228     122.037080313733       4.001215599878
       351    1        0.000000000000     120.036469986533       8.002432400122
       352    1        0.000000000000     122.037080313733      10.003039599878
       353    1        1.414643202228     120.036469986533      10.003039599878
       354    1        1.414643202228     122.037080313733       8.002432400122
       355    1        0.000000000000     124.037690640933       0.000000000000
       356    1        0.000000000000     126.038300968133       2.000608400122
       357    1        1.414643202228     124.037690640933       2.000608400122
       358    1        1.414643202228     126.038300968133       0.000000000000
       359    1        0.000000000000     124.037690640933       4.001215599878
       360    1        0.000000000000     126.038300968133       6.001824000000
       361    1        1.414643202228     124.037690640933       6.001824000000
       362    1        1.414643202228     126.038300968133       4.001215599878
       363    1        0.000000000000     124.037690640933       8.002432400122
       364    1        0.000000000000     126.038300968133      10.003039599878
       365    1        1.414643202228     124.037690640933      10.003039599878
       366    1        1.414643202228     126.038300968133       8.002432400122
       367    1        0.000000000000     128.038911295333       0.000000000000
       368    1        0.000000000000     130.039521622534       2.000608400122
       369    1        1.414643202228     128.038911295333       2.000608400122
       370    1        1.414643202228     130.039521622534       0.000000000000