 # File generated with Atomsk by user on 2025-02-15 11:58:14
  
       22580  atoms
           2  atom types
 
      0.000000000000     139.220032000000  xlo xhi
      0.000000000000     136.041339000000  ylo yhi
      0.000000000000      24.007296000000  zlo zhi
 
Masses
 
            1   55.84500000             # Fe
            2   1.00800000              # H
 
Atoms # atomic
 
         1    1       30.334043891469       1.013698701707       1.000000819764
         2    1       30.334043891469       3.014306308080       3.000609219885
         3    1       31.748687093698       1.013698701707       3.000609219885
         4    1       31.748687093698       3.014306308080       1.000000819764
         5    1       30.334043891469       1.013698701707       5.001215219277
         6    1       30.334043891469       3.014306308080       7.001824819764
         7    1       31.748687093698       1.013698701707       7.001824819764
         8    1       31.748687093698       3.014306308080       5.001215219277
         9    1       30.334043891469       1.013698701707       9.002432019520
        10    1       30.334043891469       3.014306308080      11.003041620007
        11    1       31.748687093698       1.013698701707      11.003041620007
        12    1       31.748687093698       3.014306308080       9.002432019520
        13    1       30.334043891469       5.014913914454       1.000000819764
        14    1       30.334043891469       7.015522881240       3.000609219885
        15    1       31.748687093698       5.014913914454       3.000609219885
        16    1       31.748687093698       7.015522881240       1.000000819764
        17    1       30.334043891469       5.014913914454       5.001215219277
        18    1       30.334043891469       7.015522881240       7.001824819764
        19    1       31.748687093698       5.014913914454       7.001824819764
        20    1       31.748687093698       7.015522881240       5.001215219277
        21    1       30.334043891469       5.014913914454       9.002432019520
        22    1       30.334043891469       7.015522881240      11.003041620007
        23    1       31.748687093698       5.014913914454      11.003041620007
        24    1       31.748687093698       7.015522881240       9.002432019520
        25    1       30.334043891469       9.016130487614       1.000000819764
        26    1       30.334043891469      11.016738093987       3.000609219885
        27    1       31.748687093698       9.016130487614       3.000609219885
        28    1       31.748687093698      11.016738093987       1.000000819764
        29    1       30.334043891469       9.016130487614       5.001215219277
        30    1       30.334043891469      11.016738093987       7.001824819764
        31    1       31.748687093698       9.016130487614       7.001824819764
        32    1       31.748687093698      11.016738093987       5.001215219277
        33    1       30.334043891469       9.016130487614       9.002432019520
        34    1       30.334043891469      11.016738093987      11.003041620007
        35    1       31.748687093698       9.016130487614      11.003041620007
        36    1       31.748687093698      11.016738093987       9.002432019520
        37    1       30.334043891469      13.017345700360       1.000000819764
        38    1       30.334043891469      15.017957387974       3.000609219885
        39    1       31.748687093698      13.017345700360       3.000609219885
        40    1       31.748687093698      15.017957387974       1.000000819764
        41    1       30.334043891469      13.017345700360       5.001215219277
        42    1       30.334043891469      15.017957387974       7.001824819764
        43    1       31.748687093698      13.017345700360       7.001824819764
        44    1       31.748687093698      15.017957387974       5.001215219277
        45    1       30.334043891469      13.017345700360       9.002432019520
        46    1       30.334043891469      15.017957387974      11.003041620007
        47    1       31.748687093698      13.017345700360      11.003041620007
        48    1       31.748687093698      15.017957387974       9.002432019520
        49    1       30.334043891469      17.018567715174       1.000000819764
        50    1       30.334043891469      19.019164438240       3.000609219885
        51    1       31.748687093698      17.018567715174       3.000609219885
        52    1       31.748687093698      19.019164438240       1.000000819764
        53    1       30.334043891469      17.018567715174       5.001215219277
        54    1       30.334043891469      19.019164438240       7.001824819764
        55    1       31.748687093698      17.018567715174       7.001824819764
        56    1       31.748687093698      19.019164438240       5.001215219277
        57    1       30.334043891469      17.018567715174       9.002432019520
        58    1       30.334043891469      19.019164438240      11.003041620007
        59    1       31.748687093698      17.018567715174      11.003041620007
        60    1       31.748687093698      19.019164438240       9.002432019520
        61    1       30.334043891469      21.019774765440       1.000000819764
        62    1       30.334043891469      23.020385092640       3.000609219885
        63    1       31.748687093698      21.019774765440       3.000609219885
        64    1       31.748687093698      23.020385092640       1.000000819764
        65    1       30.334043891469      21.019774765440       5.001215219277
        66    1       30.334043891469      23.020385092640       7.001824819764
        67    1       31.748687093698      21.019774765440       7.001824819764
        68    1       31.748687093698      23.020385092640       5.001215219277
        69    1       30.334043891469      21.019774765440       9.002432019520
        70    1       30.334043891469      23.020385092640      11.003041620007
        71    1       31.748687093698      21.019774765440      11.003041620007
        72    1       31.748687093698      23.020385092640       9.002432019520
        73    1       30.334043891469      25.020995419840       1.000000819764
        74    1       30.334043891469      27.021605747041       3.000609219885
        75    1       31.748687093698      25.020995419840       3.000609219885
        76    1       31.748687093698      27.021605747041       1.000000819764
        77    1       30.334043891469      25.020995419840       5.001215219277
        78    1       30.334043891469      27.021605747041       7.001824819764
        79    1       31.748687093698      25.020995419840       7.001824819764
        80    1       31.748687093698      27.021605747041       5.001215219277
        81    1       30.334043891469      25.020995419840       9.002432019520
        82    1       30.334043891469      27.021605747041      11.003041620007
        83    1       31.748687093698      25.020995419840      11.003041620007
        84    1       31.748687093698      27.021605747041       9.002432019520
        85    1       30.334043891469      29.022216074241       1.000000819764
        86    1       30.334043891469      31.022812797307       3.000609219885
        87    1       31.748687093698      29.022216074241       3.000609219885
        88    1       31.748687093698      31.022812797307       1.000000819764
        89    1       30.334043891469      29.022216074241       5.001215219277
        90    1       30.334043891469      31.022812797307       7.001824819764
        91    1       31.748687093698      29.022216074241       7.001824819764
        92    1       31.748687093698      31.022812797307       5.001215219277
        93    1       30.334043891469      29.022216074241       9.002432019520
        94    1       30.334043891469      31.022812797307      11.003041620007
        95    1       31.748687093698      29.022216074241      11.003041620007
        96    1       31.748687093698      31.022812797307       9.002432019520
        97    1       30.334043891469      33.023423124507       1.000000819764
        98    1       30.334043891469      35.024033451707       3.000609219885
        99    1       31.748687093698      33.023423124507       3.000609219885
       100    1       31.748687093698      35.024033451707       1.000000819764
       101    1       30.334043891469      33.023423124507       5.001215219277
       102    1       30.334043891469      35.024033451707       7.001824819764
       103    1       31.748687093698      33.023423124507       7.001824819764
       104    1       31.748687093698      35.024033451707       5.001215219277
       105    1       30.334043891469      33.023423124507       9.002432019520
       106    1       30.334043891469      35.024033451707      11.003041620007
       107    1       31.748687093698      33.023423124507      11.003041620007
       108    1       31.748687093698      35.024033451707       9.002432019520
       109    1       30.334043891469      37.024643778907       1.000000819764
       110    1       30.334043891469      39.025254106107       3.000609219885
       111    1       31.748687093698      37.024643778907       3.000609219885
       112    1       31.748687093698      39.025254106107       1.000000819764
       113    1       30.334043891469      37.024643778907       5.001215219277
       114    1       30.334043891469      39.025254106107       7.001824819764
       115    1       31.748687093698      37.024643778907       7.001824819764
       116    1       31.748687093698      39.025254106107       5.001215219277
       117    1       30.334043891469      37.024643778907       9.002432019520
       118    1       30.334043891469      39.025254106107      11.003041620007
       119    1       31.748687093698      37.024643778907      11.003041620007
       120    1       31.748687093698      39.025254106107       9.002432019520
       121    1       30.334043891469      41.025850829173       1.000000819764
       122    1       30.334043891469      43.026461156374       3.000609219885
       123    1       31.748687093698      41.025850829173       3.000609219885
       124    1       31.748687093698      43.026461156374       1.000000819764
       125    1       30.334043891469      41.025850829173       5.001215219277
       126    1       30.334043891469      43.026461156374       7.001824819764
       127    1       31.748687093698      41.025850829173       7.001824819764
       128    1       31.748687093698      43.026461156374       5.001215219277
       129    1       30.334043891469      41.025850829173       9.002432019520
       130    1       30.334043891469      43.026461156374      11.003041620007
       131    1       31.748687093698      41.025850829173      11.003041620007
       132    1       31.748687093698      43.026461156374       9.002432019520
       133    1       30.334043891469      45.027071483574       1.000000819764
       134    1       30.334043891469      47.027681810774       3.000609219885
       135    1       31.748687093698      45.027071483574       3.000609219885
       136    1       31.748687093698      47.027681810774       1.000000819764
       137    1       30.334043891469      45.027071483574       5.001215219277
       138    1       30.334043891469      47.027681810774       7.001824819764
       139    1       31.748687093698      45.027071483574       7.001824819764
       140    1       31.748687093698      47.027681810774       5.001215219277
       141    1       30.334043891469      45.027071483574       9.002432019520
       142    1       30.334043891469      47.027681810774      11.003041620007
       143    1       31.748687093698      45.027071483574      11.003041620007
       144    1       31.748687093698      47.027681810774       9.002432019520
       145    1       30.334043891469      49.028292137974       1.000000819764
       146    1       30.334043891469      51.028902465174       3.000609219885
       147    1       31.748687093698      49.028292137974       3.000609219885
       148    1       31.748687093698      51.028902465174       1.000000819764
       149    1       30.334043891469      49.028292137974       5.001215219277
       150    1       30.334043891469      51.028902465174       7.001824819764
       151    1       31.748687093698      49.028292137974       7.001824819764
       152    1       31.748687093698      51.028902465174       5.001215219277
       153    1       30.334043891469      49.028292137974       9.002432019520
       154    1       30.334043891469      51.028902465174      11.003041620007
       155    1       31.748687093698      49.028292137974      11.003041620007
       156    1       31.748687093698      51.028902465174       9.002432019520
       157    1       30.334043891469      53.029499188240       1.000000819764
       158    1       30.334043891469      55.030109515440       3.000609219885
       159    1       31.748687093698      53.029499188240       3.000609219885
       160    1       31.748687093698      55.030109515440       1.000000819764
       161    1       30.334043891469      53.029499188240       5.001215219277
       162    1       30.334043891469      55.030109515440       7.001824819764
       163    1       31.748687093698      53.029499188240       7.001824819764
       164    1       31.748687093698      55.030109515440       5.001215219277
       165    1       30.334043891469      53.029499188240       9.002432019520
       166    1       30.334043891469      55.030109515440      11.003041620007
       167    1       31.748687093698      53.029499188240      11.003041620007
       168    1       31.748687093698      55.030109515440       9.002432019520
       169    1       30.334043891469      57.030719842640       1.000000819764
       170    1       30.334043891469      59.031330169840       3.000609219885
       171    1       31.748687093698      57.030719842640       3.000609219885
       172    1       31.748687093698      59.031330169840       1.000000819764
       173    1       30.334043891469      57.030719842640       5.001215219277
       174    1       30.334043891469      59.031330169840       7.001824819764
       175    1       31.748687093698      57.030719842640       7.001824819764
       176    1       31.748687093698      59.031330169840       5.001215219277
       177    1       30.334043891469      57.030719842640       9.002432019520
       178    1       30.334043891469      59.031330169840      11.003041620007
       179    1       31.748687093698      57.030719842640      11.003041620007
       180    1       31.748687093698      59.031330169840       9.002432019520
       181    1       30.334043891469      61.031940497041       1.000000819764
       182    1       30.334043891469      63.032550824241       3.000609219885
       183    1       31.748687093698      61.031940497041       3.000609219885
       184    1       31.748687093698      63.032550824241       1.000000819764
       185    1       30.334043891469      61.031940497041       5.001215219277
       186    1       30.334043891469      63.032550824241       7.001824819764
       187    1       31.748687093698      61.031940497041       7.001824819764
       188    1       31.748687093698      63.032550824241       5.001215219277
       189    1       30.334043891469      61.031940497041       9.002432019520
       190    1       30.334043891469      63.032550824241      11.003041620007
       191    1       31.748687093698      61.031940497041      11.003041620007
       192    1       31.748687093698      63.032550824241       9.002432019520
       193    1       30.334043891469      65.033147547307       1.000000819764
       194    1       31.748687093698      65.033147547307       3.000609219885
       195    1       30.334043891469      65.033147547307       5.001215219277
       196    1       31.748687093698      65.033147547307       7.001824819764
       197    1       30.334043891469      65.033147547307       9.002432019520
       198    1       31.748687093698      65.033147547307      11.003041620007
       199    1       30.334043891469      73.035588856107       1.000000819764
       200    1       30.334043891469      75.036185579173       3.000609219885
       201    1       31.748687093698      73.035588856107       3.000609219885
       202    1       31.748687093698      75.036185579173       1.000000819764
       203    1       30.334043891469      73.035588856107       5.001215219277
       204    1       30.334043891469      75.036185579173       7.001824819764
       205    1       31.748687093698      73.035588856107       7.001824819764
       206    1       31.748687093698      75.036185579173       5.001215219277
       207    1       30.334043891469      73.035588856107       9.002432019520
       208    1       30.334043891469      75.036185579173      11.003041620007
       209    1       31.748687093698      73.035588856107      11.003041620007
       210    1       31.748687093698      75.036185579173       9.002432019520
       211    1       30.334043891469      77.036795906374       1.000000819764
       212    1       30.334043891469      79.037406233574       3.000609219885
       213    1       31.748687093698      77.036795906374       3.000609219885
       214    1       31.748687093698      79.037406233574       1.000000819764
       215    1       30.334043891469      77.036795906374       5.001215219277
       216    1       30.334043891469      79.037406233574       7.001824819764
       217    1       31.748687093698      77.036795906374       7.001824819764
       218    1       31.748687093698      79.037406233574       5.001215219277
       219    1       30.334043891469      77.036795906374       9.002432019520
       220    1       30.334043891469      79.037406233574      11.003041620007
       221    1       31.748687093698      77.036795906374      11.003041620007
       222    1       31.748687093698      79.037406233574       9.002432019520
       223    1       30.334043891469      81.038016560774       1.000000819764
       224    1       30.334043891469      83.038626887974       3.000609219885
       225    1       31.748687093698      81.038016560774       3.000609219885
       226    1       31.748687093698      83.038626887974       1.000000819764
       227    1       30.334043891469      81.038016560774       5.001215219277
       228    1       30.334043891469      83.038626887974       7.001824819764
       229    1       31.748687093698      81.038016560774       7.001824819764
       230    1       31.748687093698      83.038626887974       5.001215219277
       231    1       30.334043891469      81.038016560774       9.002432019520
       232    1       30.334043891469      83.038626887974      11.003041620007
       233    1       31.748687093698      81.038016560774      11.003041620007
       234    1       31.748687093698      83.038626887974       9.002432019520
       235    1       30.334043891469      85.039237215174       1.000000819764
       236    1       30.334043891469      87.039833938240       3.000609219885
       237    1       31.748687093698      85.039237215174       3.000609219885
       238    1       31.748687093698      87.039833938240       1.000000819764
       239    1       30.334043891469      85.039237215174       5.001215219277
       240    1       30.334043891469      87.039833938240       7.001824819764
       241    1       31.748687093698      85.039237215174       7.001824819764
       242    1       31.748687093698      87.039833938240       5.001215219277
       243    1       30.334043891469      85.039237215174       9.002432019520
       244    1       30.334043891469      87.039833938240      11.003041620007
       245    1       31.748687093698      85.039237215174      11.003041620007
       246    1       31.748687093698      87.039833938240       9.002432019520
       247    1       30.334043891469      89.040444265440       1.000000819764
       248    1       30.334043891469      91.041054592640       3.000609219885
       249    1       31.748687093698      89.040444265440       3.000609219885
       250    1       31.748687093698      91.041054592640       1.000000819764
       251    1       30.334043891469      89.040444265440       5.001215219277
       252    1       30.334043891469      91.041054592640       7.001824819764
       253    1       31.748687093698      89.040444265440       7.001824819764
       254    1       31.748687093698      91.041054592640       5.001215219277
       255    1       30.334043891469      89.040444265440       9.002432019520
       256    1       30.334043891469      91.041054592640      11.003041620007
       257    1       31.748687093698      89.040444265440      11.003041620007
       258    1       31.748687093698      91.041054592640       9.002432019520
       259    1       30.334043891469      93.041664919840       1.000000819764
       260    1       30.334043891469      95.042275247041       3.000609219885
       261    1       31.748687093698      93.041664919840       3.000609219885
       262    1       31.748687093698      95.042275247041       1.000000819764
       263    1       30.334043891469      93.041664919840       5.001215219277
       264    1       30.334043891469      95.042275247041       7.001824819764
       265    1       31.748687093698      93.041664919840       7.001824819764
       266    1       31.748687093698      95.042275247041       5.001215219277
       267    1       30.334043891469      93.041664919840       9.002432019520
       268    1       30.334043891469      95.042275247041      11.003041620007
       269    1       31.748687093698      93.041664919840      11.003041620007
       270    1       31.748687093698      95.042275247041       9.002432019520
       271    1       30.334043891469      97.042885574241       1.000000819764
       272    1       30.334043891469      99.043482297307       3.000609219885
       273    1       31.748687093698      97.042885574241       3.000609219885
       274    1       31.748687093698      99.043482297307       1.000000819764
       275    1       30.334043891469      97.042885574241       5.001215219277
       276    1       30.334043891469      99.043482297307       7.001824819764
       277    1       31.748687093698      97.042885574241       7.001824819764
       278    1       31.748687093698      99.043482297307       5.001215219277
       279    1       30.334043891469      97.042885574241       9.002432019520
       280    1       30.334043891469      99.043482297307      11.003041620007
       281    1       31.748687093698      97.042885574241      11.003041620007
       282    1       31.748687093698      99.043482297307       9.002432019520
       283    1       30.334043891469     101.044092624507       1.000000819764
       284    1       30.334043891469     103.044702951707       3.000609219885
       285    1       31.748687093698     101.044092624507       3.000609219885
       286    1       31.748687093698     103.044702951707       1.000000819764
       287    1       30.334043891469     101.044092624507       5.001215219277
       288    1       30.334043891469     103.044702951707       7.001824819764
       289    1       31.748687093698     101.044092624507       7.001824819764
       290    1       31.748687093698     103.044702951707       5.001215219277
       291    1       30.334043891469     101.044092624507       9.002432019520
       292    1       30.334043891469     103.044702951707      11.003041620007
       293    1       31.748687093698     101.044092624507      11.003041620007
       294    1       31.748687093698     103.044702951707       9.002432019520
       295    1       30.334043891469     105.045313278907       1.000000819764
       296    1       30.334043891469     107.045923606107       3.000609219885
       297    1       31.748687093698     105.045313278907       3.000609219885
       298    1       31.748687093698     107.045923606107       1.000000819764
       299    1       30.334043891469     105.045313278907       5.001215219277
       300    1       30.334043891469     107.045923606107       7.001824819764
       301    1       31.748687093698     105.045313278907       7.001824819764
       302    1       31.748687093698     107.045923606107       5.001215219277
       303    1       30.334043891469     105.045313278907       9.002432019520
       304    1       30.334043891469     107.045923606107      11.003041620007
       305    1       31.748687093698     105.045313278907      11.003041620007
       306    1       31.748687093698     107.045923606107       9.002432019520
       307    1       30.334043891469     109.046520329173       1.000000819764
       308    1       30.334043891469     111.047130656374       3.000609219885
       309    1       31.748687093698     109.046520329173       3.000609219885
       310    1       31.748687093698     111.047130656374       1.000000819764
       311    1       30.334043891469     109.046520329173       5.001215219277
       312    1       30.334043891469     111.047130656374       7.001824819764
       313    1       31.748687093698     109.046520329173       7.001824819764
       314    1       31.748687093698     111.047130656374       5.001215219277
       315    1       30.334043891469     109.046520329173       9.002432019520
       316    1       30.334043891469     111.047130656374      11.003041620007
       317    1       31.748687093698     109.046520329173      11.003041620007
       318    1       31.748687093698     111.047130656374       9.002432019520
       319    1       30.334043891469     113.047740983574       1.000000819764
       320    1       30.334043891469     115.048351310774       3.000609219885
       321    1       31.748687093698     113.047740983574       3.000609219885
       322    1       31.748687093698     115.048351310774       1.000000819764
       323    1       30.334043891469     113.047740983574       5.001215219277
       324    1       30.334043891469     115.048351310774       7.001824819764
       325    1       31.748687093698     113.047740983574       7.001824819764
       326    1       31.748687093698     115.048351310774       5.001215219277
       327    1       30.334043891469     113.047740983574       9.002432019520
       328    1       30.334043891469     115.048351310774      11.003041620007
       329    1       31.748687093698     113.047740983574      11.003041620007
       330    1       31.748687093698     115.048351310774       9.002432019520
       331    1       30.334043891469     117.048961637974       1.000000819764
       332    1       30.334043891469     119.049571965174       3.000609219885
       333    1       31.748687093698     117.048961637974       3.000609219885
       334    1       31.748687093698     119.049571965174       1.000000819764
       335    1       30.334043891469     117.048961637974       5.001215219277
       336    1       30.334043891469     119.049571965174       7.001824819764
       337    1       31.748687093698     117.048961637974       7.001824819764
       338    1       31.748687093698     119.049571965174       5.001215219277
       339    1       30.334043891469     117.048961637974       9.002432019520
       340    1       30.334043891469     119.049571965174      11.003041620007
       341    1       31.748687093698     117.048961637974      11.003041620007
       342    1       31.748687093698     119.049571965174       9.002432019520
       343    1       30.334043891469     121.050168688240       1.000000819764
       344    1       30.334043891469     123.050779015440       3.000609219885
       345    1       31.748687093698     121.050168688240       3.000609219885
       346    1       31.748687093698     123.050779015440       1.000000819764
       347    1       30.334043891469     121.050168688240       5.001215219277
       348    1       30.334043891469     123.050779015440       7.001824819764
       349    1       31.748687093698     121.050168688240       7.001824819764
       350    1       31.748687093698     123.050779015440       5.001215219277
       351    1       30.334043891469     121.050168688240       9.002432019520
       352    1       30.334043891469     123.050779015440      11.003041620007
       353    1       31.748687093698     121.050168688240      11.003041620007
       354    1       31.748687093698     123.050779015440       9.002432019520
       355    1       30.334043891469     125.051389342640       1.000000819764
       356    1       30.334043891469     127.051999669840       3.000609219885
       357    1       31.748687093698     125.051389342640       3.000609219885
       358    1       31.748687093698     127.051999669840       1.000000819764
       359    1       30.334043891469     125.051389342640       5.001215219277
       360    1       30.334043891469     127.051999669840       7.001824819764
       361    1       31.748687093698     125.051389342640       7.001824819764
       362    1       31.748687093698     127.051999669840       5.001215219277
       363    1       30.334043891469     125.051389342640       9.002432019520
       364    1       30.334043891469     127.051999669840      11.003041620007
       365    1       31.748687093698     125.051389342640      11.003041620007
       366    1       31.748687093698     127.051999669840       9.002432019520
       367    1       30.334043891469     129.052609997041       1.000000819764
       368    1       30.334043891469     131.053220324241       3.000609219885
       369    1       31.748687093698     129.052609997041       3.000609219885
       370    1       31.748687093698     131.053220324241       1.000000819764