 # File generated with Atomsk by user on 2025-02-15 11:54:25
  
       22642  atoms
           2  atom types
 
      0.000000000000     139.220032000000  xlo xhi
      0.000000000000     136.041339000000  ylo yhi
      0.000000000000      24.007296000000  zlo zhi
 
Masses
 
            1   55.84500000             # Fe
            2   1.00800000              # H
 
Atoms # atomic
 
         1    1       30.333783381714       1.013871103425       0.999963090185
         2    1       30.333783381714       3.014478709798       3.000571490306
         3    1       31.748426583943       1.013871103425       3.000571490306
         4    1       31.748426583943       3.014478709798       0.999963090185
         5    1       30.333783381714       1.013871103425       5.001177489698
         6    1       30.333783381714       3.014478709798       7.001787090185
         7    1       31.748426583943       1.013871103425       7.001787090185
         8    1       31.748426583943       3.014478709798       5.001177489698
         9    1       30.333783381714       1.013871103425       9.002394289942
        10    1       30.333783381714       3.014478709798      11.003003890428
        11    1       31.748426583943       1.013871103425      11.003003890428
        12    1       31.748426583943       3.014478709798       9.002394289942
        13    1       30.333783381714       5.015086316171       0.999963090185
        14    1       30.333783381714       7.015695282958       3.000571490306
        15    1       31.748426583943       5.015086316171       3.000571490306
        16    1       31.748426583943       7.015695282958       0.999963090185
        17    1       30.333783381714       5.015086316171       5.001177489698
        18    1       30.333783381714       7.015695282958       7.001787090185
        19    1       31.748426583943       5.015086316171       7.001787090185
        20    1       31.748426583943       7.015695282958       5.001177489698
        21    1       30.333783381714       5.015086316171       9.002394289942
        22    1       30.333783381714       7.015695282958      11.003003890428
        23    1       31.748426583943       5.015086316171      11.003003890428
        24    1       31.748426583943       7.015695282958       9.002394289942
        25    1       30.333783381714       9.016302889331       0.999963090185
        26    1       30.333783381714      11.016910495705       3.000571490306
        27    1       31.748426583943       9.016302889331       3.000571490306
        28    1       31.748426583943      11.016910495705       0.999963090185
        29    1       30.333783381714       9.016302889331       5.001177489698
        30    1       30.333783381714      11.016910495705       7.001787090185
        31    1       31.748426583943       9.016302889331       7.001787090185
        32    1       31.748426583943      11.016910495705       5.001177489698
        33    1       30.333783381714       9.016302889331       9.002394289942
        34    1       30.333783381714      11.016910495705      11.003003890428
        35    1       31.748426583943       9.016302889331      11.003003890428
        36    1       31.748426583943      11.016910495705       9.002394289942
        37    1       30.333783381714      13.017518102078       0.999963090185
        38    1       30.333783381714      15.018129789692       3.000571490306
        39    1       31.748426583943      13.017518102078       3.000571490306
        40    1       31.748426583943      15.018129789692       0.999963090185
        41    1       30.333783381714      13.017518102078       5.001177489698
        42    1       30.333783381714      15.018129789692       7.001787090185
        43    1       31.748426583943      13.017518102078       7.001787090185
        44    1       31.748426583943      15.018129789692       5.001177489698
        45    1       30.333783381714      13.017518102078       9.002394289942
        46    1       30.333783381714      15.018129789692      11.003003890428
        47    1       31.748426583943      13.017518102078      11.003003890428
        48    1       31.748426583943      15.018129789692       9.002394289942
        49    1       30.333783381714      17.018740116892       0.999963090185
        50    1       30.333783381714      19.019336839958       3.000571490306
        51    1       31.748426583943      17.018740116892       3.000571490306
        52    1       31.748426583943      19.019336839958       0.999963090185
        53    1       30.333783381714      17.018740116892       5.001177489698
        54    1       30.333783381714      19.019336839958       7.001787090185
        55    1       31.748426583943      17.018740116892       7.001787090185
        56    1       31.748426583943      19.019336839958       5.001177489698
        57    1       30.333783381714      17.018740116892       9.002394289942
        58    1       30.333783381714      19.019336839958      11.003003890428
        59    1       31.748426583943      17.018740116892      11.003003890428
        60    1       31.748426583943      19.019336839958       9.002394289942
        61    1       30.333783381714      21.019947167158       0.999963090185
        62    1       30.333783381714      23.020557494358       3.000571490306
        63    1       31.748426583943      21.019947167158       3.000571490306
        64    1       31.748426583943      23.020557494358       0.999963090185
        65    1       30.333783381714      21.019947167158       5.001177489698
        66    1       30.333783381714      23.020557494358       7.001787090185
        67    1       31.748426583943      21.019947167158       7.001787090185
        68    1       31.748426583943      23.020557494358       5.001177489698
        69    1       30.333783381714      21.019947167158       9.002394289942
        70    1       30.333783381714      23.020557494358      11.003003890428
        71    1       31.748426583943      21.019947167158      11.003003890428
        72    1       31.748426583943      23.020557494358       9.002394289942
        73    1       30.333783381714      25.021167821558       0.999963090185
        74    1       30.333783381714      27.021778148758       3.000571490306
        75    1       31.748426583943      25.021167821558       3.000571490306
        76    1       31.748426583943      27.021778148758       0.999963090185
        77    1       30.333783381714      25.021167821558       5.001177489698
        78    1       30.333783381714      27.021778148758       7.001787090185
        79    1       31.748426583943      25.021167821558       7.001787090185
        80    1       31.748426583943      27.021778148758       5.001177489698
        81    1       30.333783381714      25.021167821558       9.002394289942
        82    1       30.333783381714      27.021778148758      11.003003890428
        83    1       31.748426583943      25.021167821558      11.003003890428
        84    1       31.748426583943      27.021778148758       9.002394289942
        85    1       30.333783381714      29.022388475958       0.999963090185
        86    1       30.333783381714      31.022985199025       3.000571490306
        87    1       31.748426583943      29.022388475958       3.000571490306
        88    1       31.748426583943      31.022985199025       0.999963090185
        89    1       30.333783381714      29.022388475958       5.001177489698
        90    1       30.333783381714      31.022985199025       7.001787090185
        91    1       31.748426583943      29.022388475958       7.001787090185
        92    1       31.748426583943      31.022985199025       5.001177489698
        93    1       30.333783381714      29.022388475958       9.002394289942
        94    1       30.333783381714      31.022985199025      11.003003890428
        95    1       31.748426583943      29.022388475958      11.003003890428
        96    1       31.748426583943      31.022985199025       9.002394289942
        97    1       30.333783381714      33.023595526225       0.999963090185
        98    1       30.333783381714      35.024205853425       3.000571490306
        99    1       31.748426583943      33.023595526225       3.000571490306
       100    1       31.748426583943      35.024205853425       0.999963090185
       101    1       30.333783381714      33.023595526225       5.001177489698
       102    1       30.333783381714      35.024205853425       7.001787090185
       103    1       31.748426583943      33.023595526225       7.001787090185
       104    1       31.748426583943      35.024205853425       5.001177489698
       105    1       30.333783381714      33.023595526225       9.002394289942
       106    1       30.333783381714      35.024205853425      11.003003890428
       107    1       31.748426583943      33.023595526225      11.003003890428
       108    1       31.748426583943      35.024205853425       9.002394289942
       109    1       30.333783381714      37.024816180625       0.999963090185
       110    1       30.333783381714      39.025426507825       3.000571490306
       111    1       31.748426583943      37.024816180625       3.000571490306
       112    1       31.748426583943      39.025426507825       0.999963090185
       113    1       30.333783381714      37.024816180625       5.001177489698
       114    1       30.333783381714      39.025426507825       7.001787090185
       115    1       31.748426583943      37.024816180625       7.001787090185
       116    1       31.748426583943      39.025426507825       5.001177489698
       117    1       30.333783381714      37.024816180625       9.002394289942
       118    1       30.333783381714      39.025426507825      11.003003890428
       119    1       31.748426583943      37.024816180625      11.003003890428
       120    1       31.748426583943      39.025426507825       9.002394289942
       121    1       30.333783381714      41.026023230891       0.999963090185
       122    1       30.333783381714      43.026633558091       3.000571490306
       123    1       31.748426583943      41.026023230891       3.000571490306
       124    1       31.748426583943      43.026633558091       0.999963090185
       125    1       30.333783381714      41.026023230891       5.001177489698
       126    1       30.333783381714      43.026633558091       7.001787090185
       127    1       31.748426583943      41.026023230891       7.001787090185
       128    1       31.748426583943      43.026633558091       5.001177489698
       129    1       30.333783381714      41.026023230891       9.002394289942
       130    1       30.333783381714      43.026633558091      11.003003890428
       131    1       31.748426583943      41.026023230891      11.003003890428
       132    1       31.748426583943      43.026633558091       9.002394289942
       133    1       30.333783381714      45.027243885291       0.999963090185
       134    1       30.333783381714      47.027854212491       3.000571490306
       135    1       31.748426583943      45.027243885291       3.000571490306
       136    1       31.748426583943      47.027854212491       0.999963090185
       137    1       30.333783381714      45.027243885291       5.001177489698
       138    1       30.333783381714      47.027854212491       7.001787090185
       139    1       31.748426583943      45.027243885291       7.001787090185
       140    1       31.748426583943      47.027854212491       5.001177489698
       141    1       30.333783381714      45.027243885291       9.002394289942
       142    1       30.333783381714      47.027854212491      11.003003890428
       143    1       31.748426583943      45.027243885291      11.003003890428
       144    1       31.748426583943      47.027854212491       9.002394289942
       145    1       30.333783381714      49.028464539692       0.999963090185
       146    1       30.333783381714      51.029074866892       3.000571490306
       147    1       31.748426583943      49.028464539692       3.000571490306
       148    1       31.748426583943      51.029074866892       0.999963090185
       149    1       30.333783381714      49.028464539692       5.001177489698
       150    1       30.333783381714      51.029074866892       7.001787090185
       151    1       31.748426583943      49.028464539692       7.001787090185
       152    1       31.748426583943      51.029074866892       5.001177489698
       153    1       30.333783381714      49.028464539692       9.002394289942
       154    1       30.333783381714      51.029074866892      11.003003890428
       155    1       31.748426583943      49.028464539692      11.003003890428
       156    1       31.748426583943      51.029074866892       9.002394289942
       157    1       30.333783381714      53.029671589958       0.999963090185
       158    1       30.333783381714      55.030281917158       3.000571490306
       159    1       31.748426583943      53.029671589958       3.000571490306
       160    1       31.748426583943      55.030281917158       0.999963090185
       161    1       30.333783381714      53.029671589958       5.001177489698
       162    1       30.333783381714      55.030281917158       7.001787090185
       163    1       31.748426583943      53.029671589958       7.001787090185
       164    1       31.748426583943      55.030281917158       5.001177489698
       165    1       30.333783381714      53.029671589958       9.002394289942
       166    1       30.333783381714      55.030281917158      11.003003890428
       167    1       31.748426583943      53.029671589958      11.003003890428
       168    1       31.748426583943      55.030281917158       9.002394289942
       169    1       30.333783381714      57.030892244358       0.999963090185
       170    1       30.333783381714      59.031502571558       3.000571490306
       171    1       31.748426583943      57.030892244358       3.000571490306
       172    1       31.748426583943      59.031502571558       0.999963090185
       173    1       30.333783381714      57.030892244358       5.001177489698
       174    1       30.333783381714      59.031502571558       7.001787090185
       175    1       31.748426583943      57.030892244358       7.001787090185
       176    1       31.748426583943      59.031502571558       5.001177489698
       177    1       30.333783381714      57.030892244358       9.002394289942
       178    1       30.333783381714      59.031502571558      11.003003890428
       179    1       31.748426583943      57.030892244358      11.003003890428
       180    1       31.748426583943      59.031502571558       9.002394289942
       181    1       30.333783381714      61.032112898758       0.999963090185
       182    1       30.333783381714      63.032723225958       3.000571490306
       183    1       31.748426583943      61.032112898758       3.000571490306
       184    1       31.748426583943      63.032723225958       0.999963090185
       185    1       30.333783381714      61.032112898758       5.001177489698
       186    1       30.333783381714      63.032723225958       7.001787090185
       187    1       31.748426583943      61.032112898758       7.001787090185
       188    1       31.748426583943      63.032723225958       5.001177489698
       189    1       30.333783381714      61.032112898758       9.002394289942
       190    1       30.333783381714      63.032723225958      11.003003890428
       191    1       31.748426583943      61.032112898758      11.003003890428
       192    1       31.748426583943      63.032723225958       9.002394289942
       193    1       30.333783381714      65.033319949025       0.999963090185
       194    1       31.748426583943      65.033319949025       3.000571490306
       195    1       30.333783381714      65.033319949025       5.001177489698
       196    1       31.748426583943      65.033319949025       7.001787090185
       197    1       30.333783381714      65.033319949025       9.002394289942
       198    1       31.748426583943      65.033319949025      11.003003890428
       199    1       30.333783381714      73.035761257825       0.999963090185
       200    1       30.333783381714      75.036357980891       3.000571490306
       201    1       31.748426583943      73.035761257825       3.000571490306
       202    1       31.748426583943      75.036357980891       0.999963090185
       203    1       30.333783381714      73.035761257825       5.001177489698
       204    1       30.333783381714      75.036357980891       7.001787090185
       205    1       31.748426583943      73.035761257825       7.001787090185
       206    1       31.748426583943      75.036357980891       5.001177489698
       207    1       30.333783381714      73.035761257825       9.002394289942
       208    1       30.333783381714      75.036357980891      11.003003890428
       209    1       31.748426583943      73.035761257825      11.003003890428
       210    1       31.748426583943      75.036357980891       9.002394289942
       211    1       30.333783381714      77.036968308091       0.999963090185
       212    1       30.333783381714      79.037578635291       3.000571490306
       213    1       31.748426583943      77.036968308091       3.000571490306
       214    1       31.748426583943      79.037578635291       0.999963090185
       215    1       30.333783381714      77.036968308091       5.001177489698
       216    1       30.333783381714      79.037578635291       7.001787090185
       217    1       31.748426583943      77.036968308091       7.001787090185
       218    1       31.748426583943      79.037578635291       5.001177489698
       219    1       30.333783381714      77.036968308091       9.002394289942
       220    1       30.333783381714      79.037578635291      11.003003890428
       221    1       31.748426583943      77.036968308091      11.003003890428
       222    1       31.748426583943      79.037578635291       9.002394289942
       223    1       30.333783381714      81.038188962491       0.999963090185
       224    1       30.333783381714      83.038799289692       3.000571490306
       225    1       31.748426583943      81.038188962491       3.000571490306
       226    1       31.748426583943      83.038799289692       0.999963090185
       227    1       30.333783381714      81.038188962491       5.001177489698
       228    1       30.333783381714      83.038799289692       7.001787090185
       229    1       31.748426583943      81.038188962491       7.001787090185
       230    1       31.748426583943      83.038799289692       5.001177489698
       231    1       30.333783381714      81.038188962491       9.002394289942
       232    1       30.333783381714      83.038799289692      11.003003890428
       233    1       31.748426583943      81.038188962491      11.003003890428
       234    1       31.748426583943      83.038799289692       9.002394289942
       235    1       30.333783381714      85.039409616892       0.999963090185
       236    1       30.333783381714      87.040006339958       3.000571490306
       237    1       31.748426583943      85.039409616892       3.000571490306
       238    1       31.748426583943      87.040006339958       0.999963090185
       239    1       30.333783381714      85.039409616892       5.001177489698
       240    1       30.333783381714      87.040006339958       7.001787090185
       241    1       31.748426583943      85.039409616892       7.001787090185
       242    1       31.748426583943      87.040006339958       5.001177489698
       243    1       30.333783381714      85.039409616892       9.002394289942
       244    1       30.333783381714      87.040006339958      11.003003890428
       245    1       31.748426583943      85.039409616892      11.003003890428
       246    1       31.748426583943      87.040006339958       9.002394289942
       247    1       30.333783381714      89.040616667158       0.999963090185
       248    1       30.333783381714      91.041226994358       3.000571490306
       249    1       31.748426583943      89.040616667158       3.000571490306
       250    1       31.748426583943      91.041226994358       0.999963090185
       251    1       30.333783381714      89.040616667158       5.001177489698
       252    1       30.333783381714      91.041226994358       7.001787090185
       253    1       31.748426583943      89.040616667158       7.001787090185
       254    1       31.748426583943      91.041226994358       5.001177489698
       255    1       30.333783381714      89.040616667158       9.002394289942
       256    1       30.333783381714      91.041226994358      11.003003890428
       257    1       31.748426583943      89.040616667158      11.003003890428
       258    1       31.748426583943      91.041226994358       9.002394289942
       259    1       30.333783381714      93.041837321558       0.999963090185
       260    1       30.333783381714      95.042447648758       3.000571490306
       261    1       31.748426583943      93.041837321558       3.000571490306
       262    1       31.748426583943      95.042447648758       0.999963090185
       263    1       30.333783381714      93.041837321558       5.001177489698
       264    1       30.333783381714      95.042447648758       7.001787090185
       265    1       31.748426583943      93.041837321558       7.001787090185
       266    1       31.748426583943      95.042447648758       5.001177489698
       267    1       30.333783381714      93.041837321558       9.002394289942
       268    1       30.333783381714      95.042447648758      11.003003890428
       269    1       31.748426583943      93.041837321558      11.003003890428
       270    1       31.748426583943      95.042447648758       9.002394289942
       271    1       30.333783381714      97.043057975958       0.999963090185
       272    1       30.333783381714      99.043654699025       3.000571490306
       273    1       31.748426583943      97.043057975958       3.000571490306
       274    1       31.748426583943      99.043654699025       0.999963090185
       275    1       30.333783381714      97.043057975958       5.001177489698
       276    1       30.333783381714      99.043654699025       7.001787090185
       277    1       31.748426583943      97.043057975958       7.001787090185
       278    1       31.748426583943      99.043654699025       5.001177489698
       279    1       30.333783381714      97.043057975958       9.002394289942
       280    1       30.333783381714      99.043654699025      11.003003890428
       281    1       31.748426583943      97.043057975958      11.003003890428
       282    1       31.748426583943      99.043654699025       9.002394289942
       283    1       30.333783381714     101.044265026225       0.999963090185
       284    1       30.333783381714     103.044875353425       3.000571490306
       285    1       31.748426583943     101.044265026225       3.000571490306
       286    1       31.748426583943     103.044875353425       0.999963090185
       287    1       30.333783381714     101.044265026225       5.001177489698
       288    1       30.333783381714     103.044875353425       7.001787090185
       289    1       31.748426583943     101.044265026225       7.001787090185
       290    1       31.748426583943     103.044875353425       5.001177489698
       291    1       30.333783381714     101.044265026225       9.002394289942
       292    1       30.333783381714     103.044875353425      11.003003890428
       293    1       31.748426583943     101.044265026225      11.003003890428
       294    1       31.748426583943     103.044875353425       9.002394289942
       295    1       30.333783381714     105.045485680625       0.999963090185
       296    1       30.333783381714     107.046096007825       3.000571490306
       297    1       31.748426583943     105.045485680625       3.000571490306
       298    1       31.748426583943     107.046096007825       0.999963090185
       299    1       30.333783381714     105.045485680625       5.001177489698
       300    1       30.333783381714     107.046096007825       7.001787090185
       301    1       31.748426583943     105.045485680625       7.001787090185
       302    1       31.748426583943     107.046096007825       5.001177489698
       303    1       30.333783381714     105.045485680625       9.002394289942
       304    1       30.333783381714     107.046096007825      11.003003890428
       305    1       31.748426583943     105.045485680625      11.003003890428
       306    1       31.748426583943     107.046096007825       9.002394289942
       307    1       30.333783381714     109.046692730891       0.999963090185
       308    1       30.333783381714     111.047303058091       3.000571490306
       309    1       31.748426583943     109.046692730891       3.000571490306
       310    1       31.748426583943     111.047303058091       0.999963090185
       311    1       30.333783381714     109.046692730891       5.001177489698
       312    1       30.333783381714     111.047303058091       7.001787090185
       313    1       31.748426583943     109.046692730891       7.001787090185
       314    1       31.748426583943     111.047303058091       5.001177489698
       315    1       30.333783381714     109.046692730891       9.002394289942
       316    1       30.333783381714     111.047303058091      11.003003890428
       317    1       31.748426583943     109.046692730891      11.003003890428
       318    1       31.748426583943     111.047303058091       9.002394289942
       319    1       30.333783381714     113.047913385291       0.999963090185
       320    1       30.333783381714     115.048523712491       3.000571490306
       321    1       31.748426583943     113.047913385291       3.000571490306
       322    1       31.748426583943     115.048523712491       0.999963090185
       323    1       30.333783381714     113.047913385291       5.001177489698
       324    1       30.333783381714     115.048523712491       7.001787090185
       325    1       31.748426583943     113.047913385291       7.001787090185
       326    1       31.748426583943     115.048523712491       5.001177489698
       327    1       30.333783381714     113.047913385291       9.002394289942
       328    1       30.333783381714     115.048523712491      11.003003890428
       329    1       31.748426583943     113.047913385291      11.003003890428
       330    1       31.748426583943     115.048523712491       9.002394289942
       331    1       30.333783381714     117.049134039692       0.999963090185
       332    1       30.333783381714     119.049744366892       3.000571490306
       333    1       31.748426583943     117.049134039692       3.000571490306
       334    1       31.748426583943     119.049744366892       0.999963090185
       335    1       30.333783381714     117.049134039692       5.001177489698
       336    1       30.333783381714     119.049744366892       7.001787090185
       337    1       31.748426583943     117.049134039692       7.001787090185
       338    1       31.748426583943     119.049744366892       5.001177489698
       339    1       30.333783381714     117.049134039692       9.002394289942
       340    1       30.333783381714     119.049744366892      11.003003890428
       341    1       31.748426583943     117.049134039692      11.003003890428
       342    1       31.748426583943     119.049744366892       9.002394289942
       343    1       30.333783381714     121.050341089958       0.999963090185
       344    1       30.333783381714     123.050951417158       3.000571490306
       345    1       31.748426583943     121.050341089958       3.000571490306
       346    1       31.748426583943     123.050951417158       0.999963090185
       347    1       30.333783381714     121.050341089958       5.001177489698
       348    1       30.333783381714     123.050951417158       7.001787090185
       349    1       31.748426583943     121.050341089958       7.001787090185
       350    1       31.748426583943     123.050951417158       5.001177489698
       351    1       30.333783381714     121.050341089958       9.002394289942
       352    1       30.333783381714     123.050951417158      11.003003890428
       353    1       31.748426583943     121.050341089958      11.003003890428
       354    1       31.748426583943     123.050951417158       9.002394289942
       355    1       30.333783381714     125.051561744358       0.999963090185
       356    1       30.333783381714     127.052172071558       3.000571490306
       357    1       31.748426583943     125.051561744358       3.000571490306
       358    1       31.748426583943     127.052172071558       0.999963090185
       359    1       30.333783381714     125.051561744358       5.001177489698
       360    1       30.333783381714     127.052172071558       7.001787090185
       361    1       31.748426583943     125.051561744358       7.001787090185
       362    1       31.748426583943     127.052172071558       5.001177489698
       363    1       30.333783381714     125.051561744358       9.002394289942
       364    1       30.333783381714     127.052172071558      11.003003890428
       365    1       31.748426583943     125.051561744358      11.003003890428
       366    1       31.748426583943     127.052172071558       9.002394289942
       367    1       30.333783381714     129.052782398758       0.999963090185
       368    1       30.333783381714     131.053392725958       3.000571490306
       369    1       31.748426583943     129.052782398758       3.000571490306
       370    1       31.748426583943     131.053392725958       0.999963090185