LAMMPS data file via write_data, version 29 Aug 2024, timestep = 47, units = metal

288 atoms
1 atom types

0 11.317147 xlo xhi
0 28.163582 ylo yhi
0 11.317147 zlo zhi

Masses

1 55.8

Atoms # atomic

1 1 0 0 0 0 0 0
2 1 1.414643375 1.414643557616 1.414643375 0 0 0
3 1 0 0 2.82928675 0 0 0
4 1 1.414643375 1.414643557616 4.243930125 0 0 0
9 1 0 2.82928660596 0 0 0 0
10 1 1.4146433754383385 4.3811011166808145 1.4146433755313121 0 0 0
11 1 0 2.82928660596 2.82928675 0 0 0
12 1 1.4146433745941305 4.381101116710423 4.243930124348533 0 0 0
73 1 2.82928675 0 0 0 0 0
74 1 4.243930125 1.414643557616 1.414643375 0 0 0
75 1 2.82928675 0 2.82928675 0 0 0
76 1 4.243930125 1.414643557616 4.243930125 0 0 0
81 1 2.82928675 2.82928660596 0 0 0 0
82 1 4.243930124691703 4.381101116585074 1.414643374527518 0 0 0
83 1 2.82928675 2.82928660596 2.82928675 0 0 0
84 1 4.243930125339028 4.381101116610569 4.243930125543031 0 0 0
145 1 5.6585735 0 0 0 0 0
146 1 7.073216875 1.414643557616 1.414643375 0 0 0
147 1 5.6585735 0 2.82928675 0 0 0
148 1 7.073216875 1.414643557616 4.243930125 0 0 0
153 1 5.6585735 2.82928660596 0 0 0 0
154 1 7.073216875296887 4.381101116594541 1.4146433756756447 0 0 0
155 1 5.6585735 2.82928660596 2.82928675 0 0 0
156 1 7.073216874668584 4.3811011166187495 4.243930124374022 0 0 0
217 1 8.48786025 0 0 0 0 0
218 1 9.902503625 1.414643557616 1.414643375 0 0 0
219 1 8.48786025 0 2.82928675 0 0 0
220 1 9.902503625 1.414643557616 4.243930125 0 0 0
225 1 8.48786025 2.82928660596 0 0 0 0
226 1 9.902503624573034 4.381101116687344 1.4146433743562956 0 0 0
227 1 8.48786025 2.82928660596 2.82928675 0 0 0
228 1 9.90250362539827 4.381101116713984 4.243930125500129 0 0 0
17 1 11.317146998803622 5.922490854853302 11.317146999255026 -1 0 -1
18 1 1.4146433763848099 7.468815949148288 1.41464337670897 0 0 0
19 1 1.1638441321792925e-09 5.922490854894325 2.829286750972422 0 0 0
20 1 1.414643373856069 7.468815949212702 4.243930122920083 0 0 0
25 1 11.317146997429482 9.010658776360506 11.317146998332808 -1 0 -1
27 1 2.4729551739710587e-09 9.010658776411493 2.8292867520099767 0 0 0
89 1 2.829286750813812 5.922490854953401 5.851662797585858e-10 0 0 0
90 1 4.243930124102033 7.468815949030571 1.4146433735005246 0 0 0
91 1 2.8292867487736926 5.92249085498775 2.829286749298606 0 0 0
92 1 4.243930126124522 7.468815949097032 4.2439301266246225 0 0 0
97 1 2.8292867518139113 9.010658776458124 1.166659657769742e-09 0 0 0
99 1 2.8292867473207393 9.010658776502996 2.829286748595384 0 0 0
161 1 5.65857349886242 5.922490855036963 11.317146999023239 0 0 -1
162 1 7.073216875856705 7.4688159490312165 1.4146433770889264 0 0 0
163 1 5.658573501176731 5.922490855075408 2.829286750600359 0 0 0
164 1 7.073216873884801 7.46881594909842 4.243930122982977 0 0 0
169 1 5.658573497544198 9.010658776529615 11.317146997922695 0 0 -1
171 1 5.658573502508323 9.010658776578143 2.829286751386771 0 0 0
233 1 8.48786025152016 5.922490854938036 6.090944938303143e-10 0 0 0
234 1 9.902503623656482 7.468815949164711 1.4146433730563288 0 0 0
235 1 8.487860248885728 5.9224908549767115 2.8292867493317537 0 0 0
236 1 9.902503626134603 7.468815949230642 4.24393012651492 0 0 0
241 1 8.487860253212396 9.010658776443357 1.1993925852493703e-09 0 0 0
243 1 8.487860247698013 9.010658776492248 2.8292867486595523 0 0 0
26 1 1.4146433773437448 10.550444869528715 1.4146433780415533 0 0 0
28 1 1.4146433731471924 10.550444869541456 4.243930121391915 0 0 0
33 1 11.317146996340293 12.091489521071841 11.31714699766242 -1 0 -1
34 1 1.4146433777364884 13.633832113841903 1.41464337868817 0 0 0
35 1 3.5667415687612447e-09 12.091489521062302 2.8292867527076058 0 0 0
36 1 1.4146433728068817 13.633832113844528 4.243930120712492 0 0 0
98 1 4.243930123462395 10.55044486944277 1.4146433723477407 0 0 0
100 1 4.243930126954963 10.550444869455056 4.243930127778629 0 0 0
105 1 2.829286752694906 12.091489521083211 1.7022095099598554e-09 0 0 0
106 1 4.243930123139563 13.633832113892629 1.4146433716858446 0 0 0
107 1 2.8292867461181164 12.091489521076152 2.829286747988853 0 0 0
108 1 4.24393012735391 13.633832113892288 4.243930128419541 0 0 0
170 1 7.073216876469016 10.550444869456507 1.4146433785746932 0 0 0
172 1 7.07321687304754 10.550444869468654 4.243930121477718 0 0 0
177 1 5.658573496486816 12.091489521105437 11.317146997174216 0 0 -1
178 1 7.073216876787556 13.633832113883809 1.4146433792287512 0 0 0
179 1 5.658573503616914 12.091489521096685 2.829286751980792 0 0 0
180 1 7.073216872643773 13.633832113881551 4.243930120802578 0 0 0
242 1 9.902503622724824 10.550444869526961 1.4146433717262135 0 0 0
244 1 9.902503626850278 10.550444869539374 4.243930127628275 0 0 0
249 1 8.487860254477992 12.091489521081897 1.738533616965928e-09 0 0 0
250 1 9.902503622336376 13.633832113846323 1.414643371044534 0 0 0
251 1 8.487860246698206 12.09148952107273 2.829286748064585 0 0 0
252 1 9.902503627195438 13.633832113846692 4.243930128278067 0 0 0
41 1 11.317146996257229 15.17186326720398 11.317146997616309 -1 0 -1
42 1 1.4146433770701963 16.703842216428704 1.4146433778660836 0 0 0
43 1 3.636616341395893e-09 15.171863267157578 2.829286752701763 0 0 0
44 1 1.4146433732855108 16.703842216350665 4.243930121711233 0 0 0
113 1 2.829286752864041 15.17186326710697 1.7405247443646238e-09 0 0 0
114 1 4.243930123518885 16.70384221658227 1.4146433723921321 0 0 0
115 1 2.8292867460818 15.171863267078306 2.8292867479879384 0 0 0
116 1 4.243930126791996 16.7038422165138 4.243930127701593 0 0 0
185 1 5.6585734963986285 15.171863267038475 11.317146997187278 0 0 -1
186 1 7.073216876428739 16.703842216576604 1.4146433782587844 0 0 0
187 1 5.658573503671597 15.171863266999486 2.829286752045413 0 0 0
188 1 7.073216873212838 16.703842216511497 4.24393012177883 0 0 0
257 1 8.487860254480116 15.171863267122959 1.7794139495208583e-09 0 0 0
258 1 9.902503622982142 16.70384221640481 1.414643371902391 0 0 0
259 1 8.48786024660998 15.171863267086843 2.829286748047881 0 0 0
260 1 9.902503626709628 16.70384221633369 4.2439301276213195 0 0 0
49 1 11.317146998172591 18.23556294764392 11.31714699888073 -1 0 -1
50 1 1.4146433754551941 19.773551370905867 1.4146433756222117 0 0 0
51 1 1.7931774330662056e-09 18.235562947608948 2.8292867513061104 0 0 0
52 1 1.414643374606067 19.773551370876852 4.243930124275439 0 0 0
57 1 11.317146999886903 21.3815172790387 11.317146999926068 -1 0 -1
59 1 1.0762057911506417e-10 21.38151727903315 2.829286750086429 0 0 0
121 1 2.8292867514182847 18.235562947535147 8.884668476961322e-10 0 0 0
122 1 4.243930124672437 19.773551370989008 1.414643374446306 0 0 0
123 1 2.8292867481186588 18.23556294749517 2.8292867489978786 0 0 0
124 1 4.243930125374879 19.77355137095449 4.243930125592512 0 0 0
129 1 2.829286750079255 21.38151727902808 4.7418069470950286e-11 0 0 0
131 1 2.8292867498820176 21.381517279020244 2.829286749942231 0 0 0
193 1 5.658573498241127 18.235562947429113 11.31714699864411 0 0 -1
194 1 7.073216875318005 19.77355137098329 1.4146433757308605 0 0 0
195 1 5.658573501801089 18.235562947392356 2.829286750969776 0 0 0
196 1 7.073216874626568 19.773551370947008 4.2439301242939935 0 0 0
201 1 5.658573499892684 21.381517279017007 11.317146999910676 0 0 -1
203 1 5.658573500108604 21.381517279010595 2.829286750059892 0 0 0
265 1 8.487860252167975 18.235562947547496 9.028769477525035e-10 0 0 0
266 1 9.902503624554306 19.77355137090398 1.4146433743116362 0 0 0
267 1 8.487860248287097 18.23556294751291 2.8292867490351155 0 0 0
268 1 9.902503625392487 19.77355137087095 4.243930125570958 0 0 0
273 1 8.487860250141155 21.38151727902835 4.997779967652605e-11 0 0 0
275 1 8.487860249901745 21.381517279022773 2.8292867499432086 0 0 0
58 1 1.4146433750032046 23.547076044817643 1.4146433750026155 0 0 0
60 1 1.414643374999375 23.54707604481363 4.243930124995784 0 0 0
65 1 0 25.33429539404 0 0 0 0
66 1 1.414643375 26.748937423841 1.414643375 0 0 0
67 1 0 25.33429539404 2.82928675 0 0 0
68 1 1.414643375 26.748937423841 4.243930125 0 0 0
130 1 4.243930124999923 23.547076044821853 1.414643374998473 0 0 0
132 1 4.243930125002284 23.547076044818294 4.243930125001136 0 0 0
137 1 2.82928675 25.33429539404 0 0 0 0
138 1 4.243930125 26.748937423841 1.414643375 0 0 0
139 1 2.82928675 25.33429539404 2.82928675 0 0 0
140 1 4.243930125 26.748937423841 4.243930125 0 0 0
202 1 7.073216874999899 23.547076044822344 1.4146433750036824 0 0 0
204 1 7.073216874997497 23.547076044818958 4.243930124995866 0 0 0
209 1 5.6585735 25.33429539404 0 0 0 0
210 1 7.073216875 26.748937423841 1.414643375 0 0 0
211 1 5.6585735 25.33429539404 2.82928675 0 0 0
212 1 7.073216875 26.748937423841 4.243930125 0 0 0
274 1 9.902503624996957 23.547076044816134 1.414643374997383 0 0 0
276 1 9.902503625000845 23.54707604481243 4.24393012500085 0 0 0
281 1 8.48786025 25.33429539404 0 0 0 0
282 1 9.902503625 26.748937423841 1.414643375 0 0 0
283 1 8.48786025 25.33429539404 2.82928675 0 0 0
284 1 9.902503625 26.748937423841 4.243930125 0 0 0
5 1 0 0 5.6585735 0 0 0
6 1 1.414643375 1.414643557616 7.073216875 0 0 0
7 1 0 0 8.48786025 0 0 0
8 1 1.414643375 1.414643557616 9.902503625 0 0 0
13 1 0 2.82928660596 5.6585735 0 0 0
14 1 1.4146433753979324 4.381101116799475 7.073216875634844 0 0 0
15 1 0 2.82928660596 8.48786025 0 0 0
16 1 1.4146433747761955 4.381101116756581 9.902503624485313 0 0 0
77 1 2.82928675 0 5.6585735 0 0 0
78 1 4.243930125 1.414643557616 7.073216875 0 0 0
79 1 2.82928675 0 8.48786025 0 0 0
80 1 4.243930125 1.414643557616 9.902503625 0 0 0
85 1 2.82928675 2.82928660596 5.6585735 0 0 0
86 1 4.243930124668172 4.38110111669761 7.073216874304096 0 0 0
87 1 2.82928675 2.82928660596 8.48786025 0 0 0
88 1 4.243930125477011 4.3811011166522995 9.902503625625368 0 0 0
149 1 5.6585735 0 5.6585735 0 0 0
150 1 7.073216875 1.414643557616 7.073216875 0 0 0
151 1 5.6585735 0 8.48786025 0 0 0
152 1 7.073216875 1.414643557616 9.902503625 0 0 0
157 1 5.6585735 2.82928660596 5.6585735 0 0 0
158 1 7.073216875333804 4.3811011167131895 7.073216875490105 0 0 0
159 1 5.6585735 2.82928660596 8.48786025 0 0 0
160 1 7.073216874499654 4.381101116664985 9.902503624460241 0 0 0
221 1 8.48786025 0 5.6585735 0 0 0
222 1 9.902503625 1.414643557616 7.073216875 0 0 0
223 1 8.48786025 0 8.48786025 0 0 0
224 1 9.902503625 1.414643557616 9.902503625 0 0 0
229 1 8.48786025 2.82928660596 5.6585735 0 0 0
230 1 9.902503624600131 4.38110111679986 7.073216874483841 0 0 0
231 1 8.48786025 2.82928660596 8.48786025 0 0 0
232 1 9.902503625247165 4.381101116755721 9.90250362565976 0 0 0
21 1 11.317146998847253 5.922490854787611 5.658573499300891 -1 0 0
22 1 1.4146433762825232 7.468815949297321 7.073216876907589 0 0 0
23 1 1.166668539553939e-09 5.922490854741808 8.487860250471652 0 0 0
24 1 1.4146433743286069 7.468815949269009 9.902503623463408 0 0 0
29 1 11.317146997500101 9.010658776300055 5.658573498569507 -1 0 0
31 1 2.4595565095340704e-09 9.010658776271898 8.487860251087737 0 0 0
93 1 2.8292867511712902 5.922490854883014 5.658573500899657 0 0 0
94 1 4.243930124042945 7.4688159491818995 7.073216872851306 0 0 0
95 1 2.829286748511071 5.922490854836964 8.487860249216551 0 0 0
96 1 4.243930126487489 7.468815949154857 9.90250362702355 0 0 0
101 1 2.8292867524278957 9.0106587763933 5.658573501858146 0 0 0
103 1 2.829286746888469 9.010658776364773 8.487860248379798 0 0 0
165 1 5.658573498825098 5.922490854971262 5.658573499555477 0 0 0
166 1 7.073216875948266 7.468815949180293 7.073216876530577 0 0 0
167 1 5.65857350121277 5.922490854922884 8.487860250820942 0 0 0
168 1 7.073216873443351 7.468815949154789 9.902503623397495 0 0 0
173 1 5.6585734974778665 9.010658776469155 5.658573498993708 0 0 0
175 1 5.658573502551935 9.01065877643852 8.487860251696832 0 0 0
237 1 8.487860251156347 5.922490854867654 5.658573500890377 0 0 0
238 1 9.902503623726234 7.46881594931602 7.073216873321061 0 0 0
239 1 8.487860249109481 5.922490854825944 8.48786024916877 0 0 0
240 1 9.902503625740557 7.468815949288495 9.90250362710771 0 0 0
245 1 8.487860252594132 9.010658776378545 5.658573501834001 0 0 0
247 1 8.487860248100047 9.010658776354035 8.487860248307047 0 0 0
30 1 1.414643377202884 10.550444869623076 7.073216878260557 0 0 0
32 1 1.4146433738029014 10.550444869576978 9.902503622305971 0 0 0
37 1 11.317146996420547 12.091489521057957 5.658573498054471 -1 0 0
38 1 1.4146433775996106 13.633832113791136 7.07321687888442 0 0 0
39 1 3.544521121057187e-09 12.091489521033864 8.487860251575473 0 0 0
40 1 1.4146433734695614 13.633832113824855 9.90250362171496 0 0 0
102 1 4.243930123380753 10.550444869537333 7.0732168713853545 0 0 0
104 1 4.243930127467596 10.550444869490928 9.90250362848827 0 0 0
109 1 2.829286753415099 12.091489521070882 5.658573502630253 0 0 0
110 1 4.24393012305433 13.633832113841988 7.073216870681551 0 0 0
111 1 2.8292867456137265 12.091489521047201 8.48786024767868 0 0 0
112 1 4.2439301278824795 13.633832113873067 9.902503629213124 0 0 0
174 1 7.073216876594915 10.550444869550883 7.073216877734131 0 0 0
176 1 7.073216872426238 10.550444869504128 9.902503622213482 0 0 0
181 1 5.658573496410111 12.091489521091557 5.658573498552443 0 0 0
182 1 7.073216876915948 13.63383211383303 7.073216878342682 0 0 0
183 1 5.6585735036617235 12.091489521068182 8.487860252292569 0 0 0
184 1 7.073216872006227 13.633832113861892 9.902503621626 0 0 0
246 1 9.902503622821436 10.550444869621497 7.073216872040817 0 0 0
248 1 9.902503626303266 10.550444869575259 9.90250362860472 0 0 0
253 1 8.487860253754267 12.091489521069592 5.658573502599461 0 0 0
254 1 9.902503622430158 13.63383211379565 7.073216871340474 0 0 0
255 1 8.487860247180024 12.091489521043757 8.487860247597427 0 0 0
256 1 9.902503626641732 13.633832113827467 9.902503629336938 0 0 0
45 1 11.317146996328221 15.171863267257356 5.65857349798573 -1 0 0
46 1 1.4146433769811515 16.70384221622224 7.073216878023353 0 0 0
47 1 3.6177620899024987e-09 15.17186326729485 8.487860251696198 0 0 0
48 1 1.4146433737437567 16.703842216270623 9.902503622399362 0 0 0
117 1 2.8292867535049377 15.171863267173933 5.658573502581478 0 0 0
118 1 4.243930123447583 16.703842216387027 7.073216871685492 0 0 0
119 1 2.8292867456284094 15.17186326720854 8.487860247690008 0 0 0
120 1 4.243930127203851 16.70384221644141 9.902503628220773 0 0 0
189 1 5.6585734963321315 15.171863267091844 5.6585734984410685 0 0 0
190 1 7.073216876530796 16.70384221637017 7.073216877624962 0 0 0
191 1 5.65857350371271 15.171863267136684 8.487860252326211 0 0 0
192 1 7.0732168727221065 16.70384221643152 9.902503622337425 0 0 0
261 1 8.487860253834663 15.171863267189972 5.658573502560322 0 0 0
262 1 9.90250362304044 16.703842216209534 7.073216872144661 0 0 0
263 1 8.48786024704109 15.171863267217065 8.487860247612378 0 0 0
264 1 9.90250362633029 16.7038422162613 9.902503628331623 0 0 0
53 1 11.317146998207026 18.235562947726557 5.658573498991277 -1 0 0
54 1 1.4146433754315686 19.773551370812992 7.073216875684942 0 0 0
55 1 1.7682090868278677e-09 18.235562947789553 8.487860250821875 0 0 0
56 1 1.4146433747338512 19.773551370842615 9.902503624417383 0 0 0
61 1 11.317146999889667 21.381517279047838 5.6585734999393935 -1 0 0
63 1 1.0805241860215482e-10 21.381517279051902 8.487860250048112 0 0 0
125 1 2.829286751758587 18.235562947614735 5.6585735012408085 0 0 0
126 1 4.243930124653326 19.773551370888992 7.073216874267023 0 0 0
127 1 2.8292867478936685 18.23556294767554 8.487860248872893 0 0 0
128 1 4.243930125487755 19.773551370915314 9.902503625694122 0 0 0
133 1 2.8292867501033907 21.38151727903576 5.658573500079738 0 0 0
135 1 2.8292867498630128 21.38151727903903 8.487860249930606 0 0 0
197 1 5.6585734982040385 18.23556294751172 5.658573499222747 0 0 0
198 1 7.073216875345004 19.773551370890463 7.07321687557418 0 0 0
199 1 5.658573501807828 18.23556294757295 8.48786025116337 0 0 0
200 1 7.0732168744925294 19.773551370912795 9.902503624401007 0 0 0
205 1 5.658573499890698 21.381517279026124 5.658573499958822 0 0 0
207 1 5.658573500111349 21.38151727902933 8.487860250070602 0 0 0
269 1 8.487860251830408 18.23556294762707 5.658573501223474 0 0 0
270 1 9.90250362457014 19.773551370803983 7.073216874394121 0 0 0
271 1 8.487860248530293 18.235562947693268 8.48786024883853 0 0 0
272 1 9.902503625285892 19.77355137083182 9.902503625723263 0 0 0
277 1 8.487860250116224 21.381517279036032 5.658573500080006 0 0 0
279 1 8.48786024991759 21.38151727904153 8.487860249926797 0 0 0
62 1 1.414643375002972 23.547076044810925 7.073216875002399 0 0 0
64 1 1.414643375000513 23.547076044811075 9.902503624999197 0 0 0
69 1 0 25.33429539404 5.6585735 0 0 0
70 1 1.414643375 26.748937423841 7.073216875 0 0 0
71 1 0 25.33429539404 8.48786025 0 0 0
72 1 1.414643375 26.748937423841 9.902503625 0 0 0
134 1 4.243930124999828 23.547076044815466 7.073216874995955 0 0 0
136 1 4.2439301250033115 23.547076044815906 9.902503625004432 0 0 0
141 1 2.82928675 25.33429539404 5.6585735 0 0 0
142 1 4.243930125 26.748937423841 7.073216875 0 0 0
143 1 2.82928675 25.33429539404 8.48786025 0 0 0
144 1 4.243930125 26.748937423841 9.902503625 0 0 0
206 1 7.073216875000061 23.54707604481565 7.073216875001479 0 0 0
208 1 7.0732168749963025 23.547076044816414 9.90250362499897 0 0 0
213 1 5.6585735 25.33429539404 5.6585735 0 0 0
214 1 7.073216875 26.748937423841 7.073216875 0 0 0
215 1 5.6585735 25.33429539404 8.48786025 0 0 0
216 1 7.073216875 26.748937423841 9.902503625 0 0 0
278 1 9.90250362499716 23.54707604480975 7.073216874997207 0 0 0
280 1 9.902503624999879 23.54707604481005 9.902503625004561 0 0 0
285 1 8.48786025 25.33429539404 5.6585735 0 0 0
286 1 9.902503625 26.748937423841 7.073216875 0 0 0
287 1 8.48786025 25.33429539404 8.48786025 0 0 0
288 1 9.902503625 26.748937423841 9.902503625 0 0 0

Velocities

1 0 0 0
2 0 0 0
3 0 0 0
4 0 0 0
9 0 0 0
10 0 0 0
11 0 0 0
12 0 0 0
73 0 0 0
74 0 0 0
75 0 0 0
76 0 0 0
81 0 0 0
82 0 0 0
83 0 0 0
84 0 0 0
145 0 0 0
146 0 0 0
147 0 0 0
148 0 0 0
153 0 0 0
154 0 0 0
155 0 0 0
156 0 0 0
217 0 0 0
218 0 0 0
219 0 0 0
220 0 0 0
225 0 0 0
226 0 0 0
227 0 0 0
228 0 0 0
17 0 0 0
18 0 0 0
19 0 0 0
20 0 0 0
25 0 0 0
27 0 0 0
89 0 0 0
90 0 0 0
91 0 0 0
92 0 0 0
97 0 0 0
99 0 0 0
161 0 0 0
162 0 0 0
163 0 0 0
164 0 0 0
169 0 0 0
171 0 0 0
233 0 0 0
234 0 0 0
235 0 0 0
236 0 0 0
241 0 0 0
243 0 0 0
26 0 0 0
28 0 0 0
33 0 0 0
34 0 0 0
35 0 0 0
36 0 0 0
98 0 0 0
100 0 0 0
105 0 0 0
106 0 0 0
107 0 0 0
108 0 0 0
170 0 0 0
172 0 0 0
177 0 0 0
178 0 0 0
179 0 0 0
180 0 0 0
242 0 0 0
244 0 0 0
249 0 0 0
250 0 0 0
251 0 0 0
252 0 0 0
41 0 0 0
42 0 0 0
43 0 0 0
44 0 0 0
113 0 0 0
114 0 0 0
115 0 0 0
116 0 0 0
185 0 0 0
186 0 0 0
187 0 0 0
188 0 0 0
257 0 0 0
258 0 0 0
259 0 0 0
260 0 0 0
49 0 0 0
50 0 0 0
51 0 0 0
52 0 0 0
57 0 0 0
59 0 0 0
121 0 0 0
122 0 0 0
123 0 0 0
124 0 0 0
129 0 0 0
131 0 0 0
193 0 0 0
194 0 0 0
195 0 0 0
196 0 0 0
201 0 0 0
203 0 0 0
265 0 0 0
266 0 0 0
267 0 0 0
268 0 0 0
273 0 0 0
275 0 0 0
58 0 0 0
60 0 0 0
65 0 0 0
66 0 0 0
67 0 0 0
68 0 0 0
130 0 0 0
132 0 0 0
137 0 0 0
138 0 0 0
139 0 0 0
140 0 0 0
202 0 0 0
204 0 0 0
209 0 0 0
210 0 0 0
211 0 0 0
212 0 0 0
274 0 0 0
276 0 0 0
281 0 0 0
282 0 0 0
283 0 0 0
284 0 0 0
5 0 0 0
6 0 0 0
7 0 0 0
8 0 0 0
13 0 0 0
14 0 0 0
15 0 0 0
16 0 0 0
77 0 0 0
78 0 0 0
79 0 0 0
80 0 0 0
85 0 0 0
86 0 0 0
87 0 0 0
88 0 0 0
149 0 0 0
150 0 0 0
151 0 0 0
152 0 0 0
157 0 0 0
158 0 0 0
159 0 0 0
160 0 0 0
221 0 0 0
222 0 0 0
223 0 0 0
224 0 0 0
229 0 0 0
230 0 0 0
231 0 0 0
232 0 0 0
21 0 0 0
22 0 0 0
23 0 0 0
24 0 0 0
29 0 0 0
31 0 0 0
93 0 0 0
94 0 0 0
95 0 0 0
96 0 0 0
101 0 0 0
103 0 0 0
165 0 0 0
166 0 0 0
167 0 0 0
168 0 0 0
173 0 0 0
175 0 0 0
237 0 0 0
238 0 0 0
239 0 0 0
240 0 0 0
245 0 0 0
247 0 0 0
30 0 0 0
32 0 0 0
37 0 0 0
38 0 0 0
39 0 0 0
40 0 0 0
102 0 0 0
104 0 0 0
109 0 0 0
110 0 0 0
111 0 0 0
112 0 0 0
174 0 0 0
176 0 0 0
181 0 0 0
182 0 0 0
183 0 0 0
184 0 0 0
246 0 0 0
248 0 0 0
253 0 0 0
254 0 0 0
255 0 0 0
256 0 0 0
45 0 0 0
46 0 0 0
47 0 0 0
48 0 0 0
117 0 0 0
118 0 0 0
119 0 0 0
120 0 0 0
189 0 0 0
190 0 0 0
191 0 0 0
192 0 0 0
261 0 0 0
262 0 0 0
263 0 0 0
264 0 0 0
53 0 0 0
54 0 0 0
55 0 0 0
56 0 0 0
61 0 0 0
63 0 0 0
125 0 0 0
126 0 0 0
127 0 0 0
128 0 0 0
133 0 0 0
135 0 0 0
197 0 0 0
198 0 0 0
199 0 0 0
200 0 0 0
205 0 0 0
207 0 0 0
269 0 0 0
270 0 0 0
271 0 0 0
272 0 0 0
277 0 0 0
279 0 0 0
62 0 0 0
64 0 0 0
69 0 0 0
70 0 0 0
71 0 0 0
72 0 0 0
134 0 0 0
136 0 0 0
141 0 0 0
142 0 0 0
143 0 0 0
144 0 0 0
206 0 0 0
208 0 0 0
213 0 0 0
214 0 0 0
215 0 0 0
216 0 0 0
278 0 0 0
280 0 0 0
285 0 0 0
286 0 0 0
287 0 0 0
288 0 0 0
