LAMMPS data file via write_data, version 29 Aug 2024, timestep = 26, units = metal

240 atoms
1 atom types

0 13.98284573 xlo xhi
0 27.01841258 ylo yhi
0 8.07299975 zlo zhi

Masses

1 55.8

Atoms # atomic

14 1 1.104123392353 0.978309288037 6.019465798333 0 0 0
20 1 2.26936048991 1.511660948117 4.001215860833 0 0 0
119 1 2.2693338202597375 4.19535731375173 8.037715737307424 0 0 0
162 1 4.599834824853 3.240284549262 8.037715735833 0 0 0
164 1 3.434597727296 2.374575787602 1.982965923333 0 0 0
165 1 1.104123392353 3.240284549262 1.982965923333 0 0 0
171 1 4.599834824853 0.978309288037 4.001215860833 0 0 0
207 1 4.599834824853 3.240284549262 4.001215860833 0 0 0
209 1 3.434597727296 2.374575787602 6.019465798333 0 0 0
210 1 1.104123392353 3.240284549262 6.019465798333 0 0 0
211 1 2.2693338235667126 4.195357313836108 4.001215863764537 0 0 0
227 1 4.599834824853 0.978309288037 8.037715735833 0 0 0
230 1 1.104123392353 0.978309288037 1.982965923333 0 0 0
231 1 2.26936048991 1.511660948117 8.037715735833 0 0 0
16 1 8.095546257353 3.240284549262 6.019465798333 0 0 0
21 1 9.26075668628467 4.195357313901911 4.0012158618075855 0 0 0
25 1 6.930309159796 2.374575787602 4.001215860833 0 0 0
124 1 8.095546257353 3.240284549262 1.982965923333 0 0 0
125 1 9.260756689466623 4.195357313840516 8.037715738247117 0 0 0
159 1 8.095546257353 0.978309288037 6.019465798333 0 0 0
160 1 9.26078335491 1.511660948117 4.001215860833 0 0 0
163 1 5.765045253679128 4.195357314097648 1.9829659186065776 0 0 0
168 1 8.095546257353 0.978309288037 1.982965923333 0 0 0
169 1 9.26078335491 1.511660948117 8.037715735833 0 0 0
172 1 5.76507192241 1.511660948117 6.019465798333 0 0 0
206 1 6.930309159796 2.374575787602 8.037715735833 0 0 0
208 1 5.765045256211324 4.195357314092349 6.019465795498787 0 0 0
228 1 5.76507192241 1.511660948117 1.982965923333 0 0 0
1 1 11.591257689853 3.240284549262 4.001215860833 0 0 0
7 1 12.75646811859863 4.195357313571161 6.019465797274152 0 0 0
11 1 10.426020592296 2.374575787602 6.019465798333 0 0 0
33 1 11.591257689853 0.978309288037 4.001215860833 0 0 0
36 1 12.75649478741 1.511660948117 6.019465798333 0 0 0
120 1 13.921732024796 2.374575787602 8.037715735833 0 0 0
121 1 11.591257689853 3.240284549262 8.037715735833 0 0 0
122 1 12.756468121082591 4.195357313576623 1.982965924107723 0 0 0
123 1 10.426020592296 2.374575787602 1.982965923333 0 0 0
166 1 12.75649478741 1.511660948117 1.982965923333 0 0 0
213 1 13.921732024796 2.374575787602 4.001215860833 0 0 0
233 1 11.591257689853 0.978309288037 8.037715735833 0 0 0
12 1 3.4346529826688292 5.100363523850681 1.9829659210188715 0 0 0
19 1 1.104050376226807 5.9664587696405444 1.9829659204036676 0 0 0
28 1 2.269436282058409 6.852763795154365 8.037715734459965 0 0 0
31 1 4.5997618179971385 5.966458769677803 8.037715743507565 0 0 0
72 1 4.599761809461305 5.966458769811311 4.001215864790566 0 0 0
74 1 3.434652977768931 5.100363523810056 6.019465792128602 0 0 0
75 1 1.104050382457392 5.966458769678788 6.019465800409368 0 0 0
76 1 2.2694362913150905 6.852763795023081 4.0012158633511685 0 0 0
106 1 4.599885281076062 8.650826029868398 4.0012158597873135 0 0 0
108 1 3.4345325216485425 7.736278035221508 6.019465795477985 0 0 0
109 1 1.104173853367491 8.650826030057102 6.019465797956802 0 0 0
110 1 2.269325777988373 9.539949083830285 4.001215863136456 0 0 0
201 1 4.599885286810097 8.65082603004686 8.037715737499438 0 0 0
203 1 3.434532527758964 7.736278035174427 1.982965925127473 0 0 0
204 1 1.1041738486570112 8.650826030109542 1.9829659193269071 0 0 0
205 1 2.269325773825136 9.539949083726373 8.037715736199905 0 0 0
5 1 5.765147715236609 6.85276379496393 1.9829659142088985 0 0 0
69 1 8.095473249308636 5.966458769599147 1.9829659161032704 0 0 0
70 1 9.260859156915782 6.852763795132097 8.037715747570338 0 0 0
71 1 6.930364408205085 5.100363523985957 8.037715741777886 0 0 0
73 1 5.765147722032736 6.8527637949531615 6.019465794192285 0 0 0
81 1 8.095473243003779 5.966458769637308 6.019465786811031 0 0 0
107 1 5.765037209095183 9.539949083662892 6.019465799327345 0 0 0
130 1 8.09559671986418 8.650826030215121 1.9829659199816936 0 0 0
131 1 9.26074864205137 9.539949083413727 8.037715740539898 0 0 0
132 1 6.930243952387437 7.736278035031073 8.037715740266504 0 0 0
188 1 8.09559671530668 8.650826030162355 6.019465791659471 0 0 0
189 1 9.260748637701834 9.53994908348288 4.001215863680967 0 0 0
190 1 6.9302439596388385 7.73627803532217 4.001215868751103 0 0 0
199 1 9.26085914900202 6.852763795045281 4.001215868773033 0 0 0
200 1 6.9303644145062195 5.100363523726724 4.001215869613416 0 0 0
202 1 5.765037205843735 9.539949083637104 1.982965922053301 0 0 0
32 1 13.921787281415021 5.100363524352189 8.037715737458596 0 0 0
35 1 11.591184672936617 5.96645876944472 8.037715737991752 0 0 0
38 1 12.756570589281221 6.852763795216993 1.9829659221205103 0 0 0
68 1 10.426075842029183 5.1003635242811045 1.9829659183484178 0 0 0
77 1 13.921787275178398 5.100363524129501 4.0012158596824445 0 0 0
78 1 11.59118468062089 5.966458769611124 4.001215866512543 0 0 0
79 1 12.756570582760054 6.852763795206203 6.019465792123712 0 0 0
80 1 10.426075846849995 5.100363524240428 6.019465796738808 0 0 0
111 1 13.9216668170239 7.736278034971192 4.001215862236255 0 0 0
112 1 11.591308152752495 8.650826030212524 4.001215869086954 0 0 0
126 1 13.921666825238011 7.736278034728712 8.037715740654022 0 0 0
127 1 11.591308146541241 8.650826030428817 8.03771574144783 0 0 0
128 1 12.756460074968151 9.539949083569146 1.9829659196323106 0 0 0
129 1 10.425955384509312 7.7362780348134335 1.9829659124083894 0 0 0
186 1 12.756460071645689 9.539949083594728 6.0194657920411965 0 0 0
187 1 10.425955390355009 7.736278034860046 6.019465791629436 0 0 0
51 1 4.599828297233442 11.319160989052502 4.001215860712964 0 0 0
53 1 3.434615835190271 10.423715531657551 6.019465796997247 0 0 0
54 1 1.1041168661774992 11.31916098911207 6.019465797183381 0 0 0
64 1 3.4345976773768263 13.413789107661211 6.019465798286676 0 0 0
152 1 3.4346158371565876 10.423715531676157 1.98296592339083 0 0 0
153 1 1.1041168651578548 11.319160989104962 1.9829659214537596 0 0 0
154 1 2.269361426071808 12.137259191339814 8.0377157363202 0 0 0
177 1 2.2693614265143722 12.137259191334888 4.001215861525548 0 0 0
191 1 4.599828298498891 11.31916098904377 8.0377157362866 0 0 0
195 1 3.4345976773628464 13.413789107659877 1.9829659232774492 0 0 0
3 1 6.930327270259589 10.423715531807233 4.001215861501833 0 0 0
40 1 6.930309109886859 13.413789107632775 8.037715735799063 0 0 0
48 1 8.095539731043768 11.319160988998032 1.9829659236460553 0 0 0
49 1 9.260784291379172 12.137259191422974 8.0377157359216 0 0 0
50 1 6.93032726773667 10.423715531887295 8.03771573539227 0 0 0
52 1 5.765072858967184 12.137259191422773 6.019465798517007 0 0 0
98 1 6.930309109875891 13.413789107641366 4.001215860791473 0 0 0
184 1 8.095539730044713 11.319160989005168 6.019465797873553 0 0 0
185 1 9.26078429088341 12.137259191429614 4.001215860713752 0 0 0
192 1 5.76507285861645 12.137259191423936 1.9829659232417187 0 0 0
34 1 10.426020542401416 13.413789107635619 1.982965923404938 0 0 0
66 1 13.921731974893707 13.413789107663723 4.001215860857364 0 0 0
96 1 10.426020542390148 13.41378910763692 6.019465798397046 0 0 0
155 1 13.92175013445478 10.423715531737615 8.03771573938397 0 0 0
156 1 11.591251162667673 11.319160989046269 8.037715736954883 0 0 0
157 1 12.75649572381591 12.1372591913394 1.9829659228478782 0 0 0
158 1 10.426038700020577 10.42371553189453 1.982965920115323 0 0 0
179 1 13.921750131900819 10.423715531678948 4.001215863218929 0 0 0
181 1 11.591251164026827 11.319160989072214 4.00121586254647 0 0 0
182 1 12.756495723450875 12.137259191338593 6.019465797575427 0 0 0
183 1 10.42603870199357 10.423715531875978 6.019465796688173 0 0 0
197 1 13.921731974874756 13.413789107655504 8.03771573585035 0 0 0
63 1 2.269360715402384 14.687473169173087 4.001215860773426 0 0 0
65 1 4.5998351184408905 15.501108828242968 4.001215860785275 0 0 0
67 1 1.1041236859229933 15.501108828222208 6.019465798359606 0 0 0
89 1 2.2693607675360807 17.279612431314195 8.037715735674801 0 0 0
90 1 3.4345969281846593 16.396360157694776 1.9829659233935903 0 0 0
174 1 2.269360767650417 17.27961243133836 4.0012158608621435 0 0 0
175 1 3.4345969280300035 16.396360157696595 6.019465798367753 0 0 0
194 1 2.2693607155099165 14.687473169177636 8.037715735811332 0 0 0
196 1 4.599835118387223 15.501108828238774 8.037715735795656 0 0 0
198 1 1.1041236859030035 15.501108828222273 1.9829659233898367 0 0 0
24 1 9.260783580397383 14.68747316916772 8.037715735695274 0 0 0
41 1 8.095546550949887 15.501108828232113 1.9829659234112693 0 0 0
43 1 9.260783632528623 17.279612431359897 4.0012158607121 0 0 0
46 1 6.930308360612714 16.396360157679872 4.0012158608039305 0 0 0
62 1 5.765072147930764 14.68747316914544 6.019465798335088 0 0 0
88 1 5.765072199882231 17.279612431346216 1.9829659233650132 0 0 0
95 1 9.260783580517154 14.687473169156899 4.001215860731825 0 0 0
99 1 8.095546550933655 15.50110882823312 6.0194657984568565 0 0 0
101 1 9.260783632625769 17.279612431326136 8.037715735885284 0 0 0
104 1 6.930308360582647 16.39636015769321 8.037715735717532 0 0 0
173 1 5.7650722001944015 17.279612431341008 6.019465798458963 0 0 0
193 1 5.765072147996112 14.68747316914561 1.9829659233977055 0 0 0
9 1 12.75649501291741 14.68747316919216 1.9829659234258408 0 0 0
39 1 11.59125798347451 15.501108828212272 8.037715735730773 0 0 0
42 1 12.756495064976985 17.27961243132739 6.019465798358961 0 0 0
44 1 10.426019793130273 16.39636015769158 6.019465798389265 0 0 0
92 1 13.9217312255744 16.39636015771001 8.037715735844357 0 0 0
94 1 12.756495012981702 14.687473169191227 6.019465798493125 0 0 0
97 1 11.591257983405555 15.501108828212777 4.001215860740523 0 0 0
100 1 12.75649506529478 17.279612431330168 1.9829659233767136 0 0 0
102 1 10.426019792979089 16.39636015768837 1.9829659233794006 0 0 0
178 1 13.921731225558922 16.39636015769187 4.001215860752006 0 0 0
91 1 4.599836132327727 18.169256296697228 8.037715735890531 0 0 0
93 1 1.1041246993827 18.16925629667983 1.982965923374217 0 0 0
114 1 2.269366328852539 19.965248465262533 8.037715735464339 0 0 0
115 1 3.4345940434933198 19.085314380659263 1.9829659234902899 0 0 0
116 1 4.599827773861532 20.862985986155522 8.037715736078 0 0 0
118 1 1.1041163407776675 20.862985986181425 1.9829659233332753 0 0 0
134 1 2.2693663290292756 19.965248465152936 4.001215860970806 0 0 0
135 1 3.4345940427514625 19.085314380653763 6.019465798386307 0 0 0
136 1 4.599827773778147 20.862985986192527 4.001215860556375 0 0 0
138 1 1.104116341648142 20.86298598617497 6.0194657985613835 0 0 0
176 1 4.599836132107705 18.169256296666205 4.001215860592854 0 0 0
180 1 1.1041246998928835 18.169256296688932 6.019465798449626 0 0 0
222 1 3.434604238073052 21.729761391713254 1.9829659233648083 0 0 0
224 1 3.434604237325984 21.729761391718938 6.01946579832804 0 0 0
23 1 6.930315670200022 21.729761391657284 4.001215861040319 0 0 0
47 1 8.09554756451408 18.16925629666657 6.019465798280754 0 0 0
83 1 9.260789193860415 19.96524846513418 4.001215860564855 0 0 0
86 1 6.930305475683748 19.0853143807206 4.00121586102216 0 0 0
87 1 8.09553920577551 20.86298598617981 6.01946579825083 0 0 0
105 1 8.095547565000894 18.169256296659896 1.982965923435153 0 0 0
113 1 5.765077761059074 19.96524846520623 1.9829659233025545 0 0 0
133 1 5.76507776194202 19.96524846520896 6.019465798396189 0 0 0
147 1 9.260789194410552 19.965248465254675 8.037715736054237 0 0 0
150 1 6.930305475316686 19.085314380623245 8.03771573560293 0 0 0
151 1 8.09553920665639 20.86298598618414 1.9829659234479455 0 0 0
217 1 6.930315670091374 21.729761391740507 8.037715735607428 0 0 0
15 1 10.426027103129357 21.729761391678366 6.019465798566517 0 0 0
45 1 11.591258997260848 18.169256296657593 4.001215860939867 0 0 0
56 1 13.921738535587703 21.729761391740656 8.037715735946389 0 0 0
60 1 10.426027102401713 21.729761391669914 1.9829659232255377 0 0 0
82 1 12.75650062615332 19.965248465189028 6.019465798251903 0 0 0
84 1 10.426016908347371 19.085314380690015 6.019465798476167 0 0 0
85 1 11.591250638941823 20.862985986198545 4.001215860995597 0 0 0
103 1 11.591258997103258 18.169256296680985 8.037715735658137 0 0 0
117 1 13.921728340733665 19.08531438062091 8.037715735951544 0 0 0
137 1 13.921728340500895 19.085314380727862 4.0012158605454164 0 0 0
146 1 12.75650062698745 19.96524846518992 1.9829659235907013 0 0 0
148 1 10.426016907652624 19.085314380698826 1.9829659232463002 0 0 0
149 1 11.591250638263535 20.862985986167715 8.037715735511279 0 0 0
226 1 13.921738535059855 21.729761391649806 4.001215860524275 0 0 0
2 1 1.104123392353 23.562058453958 6.019465798333 0 0 0
4 1 3.434597727296 26.91037779161 6.019465798333 0 0 0
13 1 2.26936048991 25.290681807918 8.037715735833 0 0 0
17 1 3.434597727296 24.427767215617 1.982965923333 0 0 0
22 1 4.599834824853 25.824033467998 8.037715735833 0 0 0
30 1 1.104123392353 25.824033467998 1.982965923333 0 0 0
55 1 4.599834824853 23.562058453958 8.037715735833 0 0 0
57 1 1.104123392353 23.562058453958 1.982965923333 0 0 0
139 1 2.26936048991 25.290681807918 4.001215860833 0 0 0
140 1 3.434597727296 24.427767215617 6.019465798333 0 0 0
141 1 4.599834824853 25.824033467998 4.001215860833 0 0 0
143 1 1.104123392353 25.824033467998 6.019465798333 0 0 0
220 1 2.2693570696010505 22.60491756259757 8.037715735704088 0 0 0
223 1 2.2693570698217336 22.604917562704397 4.001215860946503 0 0 0
225 1 4.599834824853 23.562058453958 4.001215860833 0 0 0
229 1 3.434597727296 26.91037779161 1.982965923333 0 0 0
8 1 5.76507192241 25.290681807918 1.982965923333 0 0 0
10 1 9.260779934701135 22.604917562733004 4.00121586067932 0 0 0
27 1 8.095546257353 23.562058453958 6.019465798333 0 0 0
59 1 9.260779934845361 22.60491756262047 8.037715735916676 0 0 0
145 1 9.26078335491 25.290681807918 4.001215860833 0 0 0
161 1 6.930309159796 26.91037779161 4.001215860833 0 0 0
170 1 6.930309159796 26.91037779161 8.037715735833 0 0 0
215 1 6.930309159796 24.427767215617 4.001215860833 0 0 0
216 1 8.095546257353 25.824033467998 6.019465798333 0 0 0
218 1 5.765068502067642 22.604917562644864 1.9829659233274037 0 0 0
219 1 8.095546257353 23.562058453958 1.982965923333 0 0 0
221 1 5.765068502490441 22.604917562645593 6.019465798348427 0 0 0
235 1 9.26078335491 25.290681807918 8.037715735833 0 0 0
238 1 6.930309159796 24.427767215617 8.037715735833 0 0 0
239 1 8.095546257353 25.824033467998 1.982965923333 0 0 0
240 1 5.76507192241 25.290681807918 6.019465798333 0 0 0
6 1 12.756491367002177 22.60491756268663 6.01946579829394 0 0 0
18 1 11.591257689853 23.562058453958 4.001215860833 0 0 0
26 1 13.921732024796 24.427767215617 8.037715735833 0 0 0
29 1 13.921732024796 26.91037779161 4.001215860833 0 0 0
37 1 10.426020592296 26.91037779161 6.019465798333 0 0 0
58 1 12.75649136741333 22.60491756268393 1.9829659234787937 0 0 0
61 1 11.591257689853 23.562058453958 8.037715735833 0 0 0
142 1 13.921732024796 24.427767215617 4.001215860833 0 0 0
144 1 12.75649478741 25.290681807918 6.019465798333 0 0 0
167 1 10.426020592296 26.91037779161 1.982965923333 0 0 0
212 1 10.426020592296 24.427767215617 6.019465798333 0 0 0
214 1 11.591257689853 25.824033467998 4.001215860833 0 0 0
232 1 13.921732024796 26.91037779161 8.037715735833 0 0 0
234 1 12.75649478741 25.290681807918 1.982965923333 0 0 0
236 1 10.426020592296 24.427767215617 1.982965923333 0 0 0
237 1 11.591257689853 25.824033467998 8.037715735833 0 0 0

Velocities

14 0 0 0
20 0 0 0
119 0 0 0
162 0 0 0
164 0 0 0
165 0 0 0
171 0 0 0
207 0 0 0
209 0 0 0
210 0 0 0
211 0 0 0
227 0 0 0
230 0 0 0
231 0 0 0
16 0 0 0
21 0 0 0
25 0 0 0
124 0 0 0
125 0 0 0
159 0 0 0
160 0 0 0
163 0 0 0
168 0 0 0
169 0 0 0
172 0 0 0
206 0 0 0
208 0 0 0
228 0 0 0
1 0 0 0
7 0 0 0
11 0 0 0
33 0 0 0
36 0 0 0
120 0 0 0
121 0 0 0
122 0 0 0
123 0 0 0
166 0 0 0
213 0 0 0
233 0 0 0
12 0 0 0
19 0 0 0
28 0 0 0
31 0 0 0
72 0 0 0
74 0 0 0
75 0 0 0
76 0 0 0
106 0 0 0
108 0 0 0
109 0 0 0
110 0 0 0
201 0 0 0
203 0 0 0
204 0 0 0
205 0 0 0
5 0 0 0
69 0 0 0
70 0 0 0
71 0 0 0
73 0 0 0
81 0 0 0
107 0 0 0
130 0 0 0
131 0 0 0
132 0 0 0
188 0 0 0
189 0 0 0
190 0 0 0
199 0 0 0
200 0 0 0
202 0 0 0
32 0 0 0
35 0 0 0
38 0 0 0
68 0 0 0
77 0 0 0
78 0 0 0
79 0 0 0
80 0 0 0
111 0 0 0
112 0 0 0
126 0 0 0
127 0 0 0
128 0 0 0
129 0 0 0
186 0 0 0
187 0 0 0
51 0 0 0
53 0 0 0
54 0 0 0
64 0 0 0
152 0 0 0
153 0 0 0
154 0 0 0
177 0 0 0
191 0 0 0
195 0 0 0
3 0 0 0
40 0 0 0
48 0 0 0
49 0 0 0
50 0 0 0
52 0 0 0
98 0 0 0
184 0 0 0
185 0 0 0
192 0 0 0
34 0 0 0
66 0 0 0
96 0 0 0
155 0 0 0
156 0 0 0
157 0 0 0
158 0 0 0
179 0 0 0
181 0 0 0
182 0 0 0
183 0 0 0
197 0 0 0
63 0 0 0
65 0 0 0
67 0 0 0
89 0 0 0
90 0 0 0
174 0 0 0
175 0 0 0
194 0 0 0
196 0 0 0
198 0 0 0
24 0 0 0
41 0 0 0
43 0 0 0
46 0 0 0
62 0 0 0
88 0 0 0
95 0 0 0
99 0 0 0
101 0 0 0
104 0 0 0
173 0 0 0
193 0 0 0
9 0 0 0
39 0 0 0
42 0 0 0
44 0 0 0
92 0 0 0
94 0 0 0
97 0 0 0
100 0 0 0
102 0 0 0
178 0 0 0
91 0 0 0
93 0 0 0
114 0 0 0
115 0 0 0
116 0 0 0
118 0 0 0
134 0 0 0
135 0 0 0
136 0 0 0
138 0 0 0
176 0 0 0
180 0 0 0
222 0 0 0
224 0 0 0
23 0 0 0
47 0 0 0
83 0 0 0
86 0 0 0
87 0 0 0
105 0 0 0
113 0 0 0
133 0 0 0
147 0 0 0
150 0 0 0
151 0 0 0
217 0 0 0
15 0 0 0
45 0 0 0
56 0 0 0
60 0 0 0
82 0 0 0
84 0 0 0
85 0 0 0
103 0 0 0
117 0 0 0
137 0 0 0
146 0 0 0
148 0 0 0
149 0 0 0
226 0 0 0
2 0 0 0
4 0 0 0
13 0 0 0
17 0 0 0
22 0 0 0
30 0 0 0
55 0 0 0
57 0 0 0
139 0 0 0
140 0 0 0
141 0 0 0
143 0 0 0
220 0 0 0
223 0 0 0
225 0 0 0
229 0 0 0
8 0 0 0
10 0 0 0
27 0 0 0
59 0 0 0
145 0 0 0
161 0 0 0
170 0 0 0
215 0 0 0
216 0 0 0
218 0 0 0
219 0 0 0
221 0 0 0
235 0 0 0
238 0 0 0
239 0 0 0
240 0 0 0
6 0 0 0
18 0 0 0
26 0 0 0
29 0 0 0
37 0 0 0
58 0 0 0
61 0 0 0
142 0 0 0
144 0 0 0
167 0 0 0
212 0 0 0
214 0 0 0
232 0 0 0
234 0 0 0
236 0 0 0
237 0 0 0
