LAMMPS data file via write_data, version 29 Aug 2024, timestep = 13, units = metal

240 atoms
1 atom types

0 13.98284573 xlo xhi
0 25.91841258 ylo yhi
0 8.07299975 zlo zhi

Masses

1 55.8

Atoms # atomic

14 1 1.104123392353 0.978309288037 6.019465798333 0 0 0
20 1 2.26936048991 1.511660948117 4.001215860833 0 0 0
119 1 2.2693605389105427 4.118541734736408 8.037715735832991 0 0 0
162 1 4.599834824853 3.240284549262 8.037715735833 0 0 0
164 1 3.434597727296 2.374575787602 1.982965923333 0 0 0
165 1 1.104123392353 3.240284549262 1.982965923333 0 0 0
171 1 4.599834824853 0.978309288037 4.001215860833 0 0 0
207 1 4.599834824853 3.240284549262 4.001215860833 0 0 0
209 1 3.434597727296 2.374575787602 6.019465798333 0 0 0
210 1 1.104123392353 3.240284549262 6.019465798333 0 0 0
211 1 2.2693605389105067 4.118541734736402 4.0012158608329935 0 0 0
227 1 4.599834824853 0.978309288037 8.037715735833 0 0 0
230 1 1.104123392353 0.978309288037 1.982965923333 0 0 0
231 1 2.26936048991 1.511660948117 8.037715735833 0 0 0
16 1 8.095546257353 3.240284549262 6.019465798333 0 0 0
21 1 9.260783403910546 4.118541734736408 4.001215860832995 0 0 0
25 1 6.930309159796 2.374575787602 4.001215860833 0 0 0
124 1 8.095546257353 3.240284549262 1.982965923333 0 0 0
125 1 9.260783403910512 4.118541734736395 8.037715735832997 0 0 0
159 1 8.095546257353 0.978309288037 6.019465798333 0 0 0
160 1 9.26078335491 1.511660948117 4.001215860833 0 0 0
163 1 5.7650719714105225 4.118541734736403 1.982965923333009 0 0 0
168 1 8.095546257353 0.978309288037 1.982965923333 0 0 0
169 1 9.26078335491 1.511660948117 8.037715735833 0 0 0
172 1 5.76507192241 1.511660948117 6.019465798333 0 0 0
206 1 6.930309159796 2.374575787602 8.037715735833 0 0 0
208 1 5.7650719714105225 4.118541734736418 6.019465798332995 0 0 0
228 1 5.76507192241 1.511660948117 1.982965923333 0 0 0
1 1 11.591257689853 3.240284549262 4.001215860833 0 0 0
7 1 12.756494836410523 4.1185417347364055 6.019465798333021 0 0 0
11 1 10.426020592296 2.374575787602 6.019465798333 0 0 0
33 1 11.591257689853 0.978309288037 4.001215860833 0 0 0
36 1 12.75649478741 1.511660948117 6.019465798333 0 0 0
120 1 13.921732024796 2.374575787602 8.037715735833 0 0 0
121 1 11.591257689853 3.240284549262 8.037715735833 0 0 0
122 1 12.756494836410521 4.118541734736395 1.9829659233329984 0 0 0
123 1 10.426020592296 2.374575787602 1.982965923333 0 0 0
166 1 12.75649478741 1.511660948117 1.982965923333 0 0 0
213 1 13.921732024796 2.374575787602 4.001215860833 0 0 0
233 1 11.591257689853 0.978309288037 8.037715735833 0 0 0
12 1 3.434597685579925 4.980760576892712 1.9829659233329862 0 0 0
19 1 1.1041233956732792 5.809912940783229 1.9829659233330392 0 0 0
28 1 2.2693605383026663 6.662899846693397 8.03771573583298 0 0 0
31 1 4.5998348281732335 5.80991294078323 8.037715735832991 0 0 0
72 1 4.599834828173311 5.8099129407832235 4.001215860833 0 0 0
74 1 3.434597685579936 4.980760576892705 6.019465798333025 0 0 0
75 1 1.1041233956732555 5.809912940783242 6.019465798332992 0 0 0
76 1 2.2693605383025717 6.662899846693393 4.001215860832986 0 0 0
106 1 4.599834827838573 8.371968920217824 4.001215860832984 0 0 0
108 1 3.4345976844534434 7.507199956971027 6.01946579833304 0 0 0
109 1 1.1041233953385203 8.371968920217821 6.019465798332995 0 0 0
201 1 4.599834827838498 8.37196892021782 8.037715735833 0 0 0
203 1 3.4345976844534594 7.507199956971024 1.982965923332987 0 0 0
204 1 1.1041233953385157 8.371968920217832 1.9829659233330337 0 0 0
5 1 5.76507197080261 6.662899846693407 1.982965923333024 0 0 0
69 1 8.095546260673284 5.809912940783225 1.982965923332982 0 0 0
70 1 9.260783403302572 6.662899846693406 8.037715735832995 0 0 0
71 1 6.930309118079947 4.980760576892715 8.037715735832988 0 0 0
73 1 5.765071970802634 6.662899846693394 6.019465798332985 0 0 0
81 1 8.095546260673249 5.809912940783242 6.019465798333026 0 0 0
130 1 8.095546260338528 8.37196892021783 1.9829659233329804 0 0 0
132 1 6.930309116953486 7.507199956971028 8.037715735832988 0 0 0
188 1 8.095546260338534 8.371968920217823 6.019465798333023 0 0 0
190 1 6.9303091169533975 7.507199956971032 4.001215860833007 0 0 0
199 1 9.260783403302673 6.662899846693404 4.0012158608329935 0 0 0
200 1 6.9303091180798955 4.980760576892715 4.001215860833006 0 0 0
32 1 13.9217319830799 4.980760576892712 8.037715735832984 0 0 0
35 1 11.591257693173315 5.809912940783235 8.03771573583299 0 0 0
38 1 12.756494835802616 6.662899846693403 1.9829659233329833 0 0 0
68 1 10.426020550579928 4.980760576892721 1.9829659233330343 0 0 0
77 1 13.92173198307996 4.980760576892709 4.001215860832996 0 0 0
78 1 11.59125769317322 5.80991294078323 4.001215860832984 0 0 0
79 1 12.756494835802636 6.662899846693401 6.019465798333049 0 0 0
80 1 10.42602055057994 4.980760576892708 6.019465798332983 0 0 0
111 1 13.921731981953485 7.507199956971032 4.001215860832992 0 0 0
112 1 11.59125769283849 8.371968920217826 4.001215860832999 0 0 0
126 1 13.921731981953403 7.507199956971027 8.037715735832975 0 0 0
127 1 11.591257692838568 8.371968920217824 8.037715735832991 0 0 0
129 1 10.426020549453444 7.507199956971024 1.9829659233330363 0 0 0
187 1 10.426020549453439 7.5071999569710375 6.019465798332976 0 0 0
51 1 4.599834825794426 10.971285717051549 4.001215860832999 0 0 0
53 1 3.4345976834261687 10.082701371843577 6.019465798333015 0 0 0
54 1 1.1041233932944199 10.971285717051549 6.019465798332993 0 0 0
64 1 3.4345976807202194 12.835961773800046 6.019465798332998 0 0 0
110 1 2.2693605369601566 9.21055814490829 4.001215860832995 0 0 0
152 1 3.4345976834261753 10.082701371843571 1.9829659233329946 0 0 0
153 1 1.104123393294414 10.971285717051547 1.9829659233330144 0 0 0
154 1 2.2693605372218038 11.666675540280556 8.037715735832991 0 0 0
177 1 2.269360537221792 11.666675540280545 4.0012158608330015 0 0 0
191 1 4.599834825794412 10.97128571705155 8.037715735832991 0 0 0
195 1 3.4345976807202145 12.83596177380005 1.9829659233330037 0 0 0
205 1 2.2693605369602126 9.210558144908283 8.037715735832988 0 0 0
3 1 6.930309115926158 10.082701371843573 4.001215860832996 0 0 0
40 1 6.930309113220213 12.835961773800049 8.037715735832995 0 0 0
48 1 8.095546258294423 10.971285717051549 1.982965923333001 0 0 0
49 1 9.260783402221794 11.666675540280552 8.037715735832993 0 0 0
50 1 6.930309115926188 10.08270137184357 8.037715735832997 0 0 0
52 1 5.765071969721796 11.666675540280565 6.019465798333002 0 0 0
98 1 6.930309113220211 12.83596177380005 4.0012158608330015 0 0 0
107 1 5.765071969460191 9.210558144908273 6.019465798332986 0 0 0
131 1 9.260783401960165 9.210558144908285 8.037715735832995 0 0 0
184 1 8.095546258294425 10.971285717051549 6.019465798333015 0 0 0
185 1 9.260783402221804 11.666675540280554 4.001215860832995 0 0 0
189 1 9.260783401960216 9.210558144908282 4.001215860833004 0 0 0
192 1 5.765071969721799 11.666675540280561 1.9829659233330048 0 0 0
202 1 5.765071969460183 9.210558144908271 1.9829659233330195 0 0 0
34 1 10.426020545720215 12.835961773800049 1.9829659233330037 0 0 0
66 1 13.921731978220208 12.835961773800047 4.0012158608330015 0 0 0
96 1 10.426020545720212 12.835961773800047 6.019465798332997 0 0 0
128 1 12.756494834460199 9.21055814490829 1.9829659233329884 0 0 0
155 1 13.921731980926154 10.082701371843571 8.037715735833 0 0 0
156 1 11.591257690794425 10.971285717051547 8.037715735833002 0 0 0
157 1 12.756494834721797 11.666675540280547 1.9829659233329975 0 0 0
158 1 10.426020548426173 10.082701371843573 1.9829659233330086 0 0 0
179 1 13.921731980926182 10.08270137184357 4.001215860832999 0 0 0
181 1 11.591257690794416 10.971285717051547 4.001215860833005 0 0 0
182 1 12.756494834721796 11.666675540280552 6.019465798333 0 0 0
183 1 10.42602054842617 10.082701371843573 6.019465798332992 0 0 0
186 1 12.75649483446019 9.210558144908285 6.019465798333014 0 0 0
197 1 13.921731978220208 12.835961773800049 8.037715735832998 0 0 0
63 1 2.2693605359851845 14.006054120157756 4.001215860832998 0 0 0
65 1 4.599834824677785 14.703296999685614 4.001215860833001 0 0 0
67 1 1.1041233921777969 14.703296999685616 6.019465798332998 0 0 0
89 1 2.269360535061512 16.467069719541424 8.037715735833013 0 0 0
90 1 3.434597681806708 15.594831640095856 1.9829659233329957 0 0 0
174 1 2.2693605350615154 16.467069719541424 4.0012158608330015 0 0 0
175 1 3.4345976818067134 15.59483164009586 6.019465798332992 0 0 0
194 1 2.2693605359851823 14.006054120157746 8.037715735833 0 0 0
196 1 4.599834824677792 14.70329699968561 8.037715735833006 0 0 0
198 1 1.1041233921777993 14.703296999685614 1.9829659233330057 0 0 0
24 1 9.260783400985183 14.006054120157748 8.037715735833002 0 0 0
41 1 8.095546257177789 14.70329699968561 1.9829659233329926 0 0 0
43 1 9.260783400061511 16.46706971954142 4.001215860833019 0 0 0
46 1 6.930309114306716 15.594831640095862 4.001215860833004 0 0 0
62 1 5.765071968485181 14.006054120157733 6.019465798333002 0 0 0
88 1 5.765071967561523 16.467069719541424 1.9829659233329913 0 0 0
95 1 9.260783400985181 14.006054120157742 4.001215860833004 0 0 0
99 1 8.095546257177794 14.703296999685612 6.019465798332994 0 0 0
101 1 9.260783400061511 16.467069719541428 8.03771573583301 0 0 0
104 1 6.930309114306716 15.594831640095853 8.037715735833014 0 0 0
173 1 5.7650719675615045 16.467069719541428 6.019465798332986 0 0 0
193 1 5.765071968485181 14.006054120157744 1.9829659233329961 0 0 0
9 1 12.75649483348518 14.006054120157746 1.9829659233330004 0 0 0
39 1 11.591257689677798 14.703296999685612 8.037715735833007 0 0 0
42 1 12.756494832561522 16.467069719541417 6.0194657983329956 0 0 0
44 1 10.426020546806715 15.594831640095858 6.019465798332991 0 0 0
92 1 13.921731979306715 15.59483164009586 8.037715735833 0 0 0
94 1 12.756494833485183 14.006054120157746 6.019465798332997 0 0 0
97 1 11.591257689677793 14.703296999685612 4.001215860832999 0 0 0
100 1 12.7564948325615 16.467069719541424 1.9829659233329924 0 0 0
102 1 10.426020546806729 15.594831640095858 1.9829659233329917 0 0 0
178 1 13.921731979306719 15.594831640095856 4.001215860833004 0 0 0
91 1 4.5998348259419135 17.31152409276004 8.03771573583301 0 0 0
93 1 1.1041233934419266 17.31152409276004 1.98296592333299 0 0 0
114 1 2.2693605367915968 19.023812817571372 8.03771573583303 0 0 0
115 1 3.4345976819722313 18.18384477155396 1.9829659233329888 0 0 0
116 1 4.599834825902905 19.89346431512919 8.037715735833006 0 0 0
118 1 1.1041233934029204 19.893464315129194 1.9829659233329846 0 0 0
134 1 2.2693605367916017 19.02381281757136 4.001215860833004 0 0 0
135 1 3.434597681972267 18.183844771553964 6.019465798332976 0 0 0
136 1 4.599834825902902 19.89346431512919 4.001215860833031 0 0 0
138 1 1.104123393402888 19.893464315129197 6.019465798332988 0 0 0
176 1 4.599834825941913 17.31152409276004 4.00121586083302 0 0 0
180 1 1.1041233934418988 17.311524092760035 6.019465798332992 0 0 0
222 1 3.434597683817541 20.728013519656102 1.9829659233329864 0 0 0
224 1 3.434597683817568 20.7280135196561 6.019465798332986 0 0 0
23 1 6.930309116317557 20.728013519656106 4.001215860833001 0 0 0
47 1 8.095546258441924 17.311524092760035 6.019465798332986 0 0 0
83 1 9.260783401791599 19.02381281757137 4.001215860833018 0 0 0
86 1 6.930309114472239 18.183844771553957 4.00121586083301 0 0 0
87 1 8.095546258402921 19.893464315129194 6.019465798332989 0 0 0
105 1 8.0955462584419 17.31152409276004 1.9829659233329826 0 0 0
113 1 5.76507196929161 19.023812817571365 1.9829659233329802 0 0 0
133 1 5.765071969291579 19.023812817571358 6.019465798332983 0 0 0
147 1 9.260783401791599 19.02381281757136 8.037715735833004 0 0 0
150 1 6.930309114472241 18.18384477155396 8.037715735833025 0 0 0
151 1 8.095546258402896 19.893464315129187 1.9829659233329855 0 0 0
217 1 6.930309116317555 20.728013519656095 8.037715735833014 0 0 0
15 1 10.426020548817554 20.7280135196561 6.019465798332992 0 0 0
45 1 11.591257690941902 17.311524092760042 4.001215860833001 0 0 0
56 1 13.921731981317553 20.7280135196561 8.03771573583301 0 0 0
60 1 10.42602054881756 20.728013519656102 1.9829659233329993 0 0 0
82 1 12.756494834291606 19.023812817571372 6.019465798332989 0 0 0
84 1 10.426020546972229 18.18384477155396 6.01946579833299 0 0 0
85 1 11.591257690902909 19.893464315129194 4.001215860833008 0 0 0
103 1 11.591257690941912 17.311524092760042 8.037715735833018 0 0 0
117 1 13.921731979472243 18.18384477155396 8.037715735833 0 0 0
137 1 13.921731979472248 18.183844771553964 4.001215860833019 0 0 0
146 1 12.756494834291576 19.023812817571365 1.9829659233329917 0 0 0
148 1 10.42602054697226 18.183844771553954 1.9829659233329913 0 0 0
149 1 11.591257690902907 19.89346431512919 8.037715735833006 0 0 0
226 1 13.921731981317544 20.7280135196561 4.001215860833013 0 0 0
2 1 1.104123392353 22.462058453958 6.019465798333 0 0 0
4 1 3.434597727296 25.81037779161 6.019465798333 0 0 0
13 1 2.26936048991 24.190681807918 8.037715735833 0 0 0
17 1 3.434597727296 23.327767215617 1.982965923333 0 0 0
22 1 4.599834824853 24.724033467998 8.037715735833 0 0 0
30 1 1.104123392353 24.724033467998 1.982965923333 0 0 0
55 1 4.599834824853 22.462058453958 8.037715735833 0 0 0
57 1 1.104123392353 22.462058453958 1.982965923333 0 0 0
139 1 2.26936048991 24.190681807918 4.001215860833 0 0 0
140 1 3.434597727296 23.327767215617 6.019465798333 0 0 0
141 1 4.599834824853 24.724033467998 4.001215860833 0 0 0
143 1 1.104123392353 24.724033467998 6.019465798333 0 0 0
220 1 2.269360537846077 21.571674459064035 8.037715735833011 0 0 0
223 1 2.2693605378460795 21.571674459064038 4.001215860833003 0 0 0
225 1 4.599834824853 22.462058453958 4.001215860833 0 0 0
229 1 3.434597727296 25.81037779161 1.982965923333 0 0 0
8 1 5.76507192241 24.190681807918 1.982965923333 0 0 0
10 1 9.260783402846066 21.571674459064035 4.001215860833003 0 0 0
27 1 8.095546257353 22.462058453958 6.019465798333 0 0 0
59 1 9.260783402846066 21.571674459064035 8.037715735833002 0 0 0
145 1 9.26078335491 24.190681807918 4.001215860833 0 0 0
161 1 6.930309159796 25.81037779161 4.001215860833 0 0 0
170 1 6.930309159796 25.81037779161 8.037715735833 0 0 0
215 1 6.930309159796 23.327767215617 4.001215860833 0 0 0
216 1 8.095546257353 24.724033467998 6.019465798333 0 0 0
218 1 5.76507197034608 21.571674459064035 1.982965923333 0 0 0
219 1 8.095546257353 22.462058453958 1.982965923333 0 0 0
221 1 5.765071970346057 21.571674459064038 6.019465798332994 0 0 0
235 1 9.26078335491 24.190681807918 8.037715735833 0 0 0
238 1 6.930309159796 23.327767215617 8.037715735833 0 0 0
239 1 8.095546257353 24.724033467998 1.982965923333 0 0 0
240 1 5.76507192241 24.190681807918 6.019465798333 0 0 0
6 1 12.756494835346068 21.571674459064035 6.019465798332992 0 0 0
18 1 11.591257689853 22.462058453958 4.001215860833 0 0 0
26 1 13.921732024796 23.327767215617 8.037715735833 0 0 0
29 1 13.921732024796 25.81037779161 4.001215860833 0 0 0
37 1 10.426020592296 25.81037779161 6.019465798333 0 0 0
58 1 12.75649483534607 21.571674459064035 1.982965923332994 0 0 0
61 1 11.591257689853 22.462058453958 8.037715735833 0 0 0
142 1 13.921732024796 23.327767215617 4.001215860833 0 0 0
144 1 12.75649478741 24.190681807918 6.019465798333 0 0 0
167 1 10.426020592296 25.81037779161 1.982965923333 0 0 0
212 1 10.426020592296 23.327767215617 6.019465798333 0 0 0
214 1 11.591257689853 24.724033467998 4.001215860833 0 0 0
232 1 13.921732024796 25.81037779161 8.037715735833 0 0 0
234 1 12.75649478741 24.190681807918 1.982965923333 0 0 0
236 1 10.426020592296 23.327767215617 1.982965923333 0 0 0
237 1 11.591257689853 24.724033467998 8.037715735833 0 0 0

Velocities

14 0 0 0
20 0 0 0
119 0 0 0
162 0 0 0
164 0 0 0
165 0 0 0
171 0 0 0
207 0 0 0
209 0 0 0
210 0 0 0
211 0 0 0
227 0 0 0
230 0 0 0
231 0 0 0
16 0 0 0
21 0 0 0
25 0 0 0
124 0 0 0
125 0 0 0
159 0 0 0
160 0 0 0
163 0 0 0
168 0 0 0
169 0 0 0
172 0 0 0
206 0 0 0
208 0 0 0
228 0 0 0
1 0 0 0
7 0 0 0
11 0 0 0
33 0 0 0
36 0 0 0
120 0 0 0
121 0 0 0
122 0 0 0
123 0 0 0
166 0 0 0
213 0 0 0
233 0 0 0
12 0 0 0
19 0 0 0
28 0 0 0
31 0 0 0
72 0 0 0
74 0 0 0
75 0 0 0
76 0 0 0
106 0 0 0
108 0 0 0
109 0 0 0
201 0 0 0
203 0 0 0
204 0 0 0
5 0 0 0
69 0 0 0
70 0 0 0
71 0 0 0
73 0 0 0
81 0 0 0
130 0 0 0
132 0 0 0
188 0 0 0
190 0 0 0
199 0 0 0
200 0 0 0
32 0 0 0
35 0 0 0
38 0 0 0
68 0 0 0
77 0 0 0
78 0 0 0
79 0 0 0
80 0 0 0
111 0 0 0
112 0 0 0
126 0 0 0
127 0 0 0
129 0 0 0
187 0 0 0
51 0 0 0
53 0 0 0
54 0 0 0
64 0 0 0
110 0 0 0
152 0 0 0
153 0 0 0
154 0 0 0
177 0 0 0
191 0 0 0
195 0 0 0
205 0 0 0
3 0 0 0
40 0 0 0
48 0 0 0
49 0 0 0
50 0 0 0
52 0 0 0
98 0 0 0
107 0 0 0
131 0 0 0
184 0 0 0
185 0 0 0
189 0 0 0
192 0 0 0
202 0 0 0
34 0 0 0
66 0 0 0
96 0 0 0
128 0 0 0
155 0 0 0
156 0 0 0
157 0 0 0
158 0 0 0
179 0 0 0
181 0 0 0
182 0 0 0
183 0 0 0
186 0 0 0
197 0 0 0
63 0 0 0
65 0 0 0
67 0 0 0
89 0 0 0
90 0 0 0
174 0 0 0
175 0 0 0
194 0 0 0
196 0 0 0
198 0 0 0
24 0 0 0
41 0 0 0
43 0 0 0
46 0 0 0
62 0 0 0
88 0 0 0
95 0 0 0
99 0 0 0
101 0 0 0
104 0 0 0
173 0 0 0
193 0 0 0
9 0 0 0
39 0 0 0
42 0 0 0
44 0 0 0
92 0 0 0
94 0 0 0
97 0 0 0
100 0 0 0
102 0 0 0
178 0 0 0
91 0 0 0
93 0 0 0
114 0 0 0
115 0 0 0
116 0 0 0
118 0 0 0
134 0 0 0
135 0 0 0
136 0 0 0
138 0 0 0
176 0 0 0
180 0 0 0
222 0 0 0
224 0 0 0
23 0 0 0
47 0 0 0
83 0 0 0
86 0 0 0
87 0 0 0
105 0 0 0
113 0 0 0
133 0 0 0
147 0 0 0
150 0 0 0
151 0 0 0
217 0 0 0
15 0 0 0
45 0 0 0
56 0 0 0
60 0 0 0
82 0 0 0
84 0 0 0
85 0 0 0
103 0 0 0
117 0 0 0
137 0 0 0
146 0 0 0
148 0 0 0
149 0 0 0
226 0 0 0
2 0 0 0
4 0 0 0
13 0 0 0
17 0 0 0
22 0 0 0
30 0 0 0
55 0 0 0
57 0 0 0
139 0 0 0
140 0 0 0
141 0 0 0
143 0 0 0
220 0 0 0
223 0 0 0
225 0 0 0
229 0 0 0
8 0 0 0
10 0 0 0
27 0 0 0
59 0 0 0
145 0 0 0
161 0 0 0
170 0 0 0
215 0 0 0
216 0 0 0
218 0 0 0
219 0 0 0
221 0 0 0
235 0 0 0
238 0 0 0
239 0 0 0
240 0 0 0
6 0 0 0
18 0 0 0
26 0 0 0
29 0 0 0
37 0 0 0
58 0 0 0
61 0 0 0
142 0 0 0
144 0 0 0
167 0 0 0
212 0 0 0
214 0 0 0
232 0 0 0
234 0 0 0
236 0 0 0
237 0 0 0
