LAMMPS data file via write_data, version 29 Aug 2024, timestep = 17, units = metal

288 atoms
1 atom types

0 11.317147 xlo xhi
0 26.963582 ylo yhi
0 11.317147 zlo zhi

Masses

1 55.8

Atoms # atomic

1 1 0 0 0 0 0 0
2 1 1.414643375 1.414643557616 1.414643375 0 0 0
3 1 0 0 2.82928675 0 0 0
4 1 1.414643375 1.414643557616 4.243930125 0 0 0
9 1 0 2.82928660596 0 0 0 0
10 1 1.4146433749999554 4.356408082999534 1.4146433750000982 0 0 0
11 1 0 2.82928660596 2.82928675 0 0 0
12 1 1.41464337500008 4.356408082999549 4.243930124999884 0 0 0
73 1 2.82928675 0 0 0 0 0
74 1 4.243930125 1.414643557616 1.414643375 0 0 0
75 1 2.82928675 0 2.82928675 0 0 0
76 1 4.243930125 1.414643557616 4.243930125 0 0 0
81 1 2.82928675 2.82928660596 0 0 0 0
82 1 4.243930125000131 4.356408082999524 1.4146433749999479 0 0 0
83 1 2.82928675 2.82928660596 2.82928675 0 0 0
84 1 4.243930124999887 4.356408082999473 4.243930125000055 0 0 0
145 1 5.6585735 0 0 0 0 0
146 1 7.073216875 1.414643557616 1.414643375 0 0 0
147 1 5.6585735 0 2.82928675 0 0 0
148 1 7.073216875 1.414643557616 4.243930125 0 0 0
153 1 5.6585735 2.82928660596 0 0 0 0
154 1 7.073216874999882 4.356408082999536 1.414643375000141 0 0 0
155 1 5.6585735 2.82928660596 2.82928675 0 0 0
156 1 7.073216875000108 4.356408082999495 4.243930124999897 0 0 0
217 1 8.48786025 0 0 0 0 0
218 1 9.902503625 1.414643557616 1.414643375 0 0 0
219 1 8.48786025 0 2.82928675 0 0 0
220 1 9.902503625 1.414643557616 4.243930125 0 0 0
225 1 8.48786025 2.82928660596 0 0 0 0
226 1 9.902503625000037 4.356408082999514 1.414643374999864 0 0 0
227 1 8.48786025 2.82928660596 2.82928675 0 0 0
228 1 9.902503624999932 4.356408082999483 4.243930125000075 0 0 0
17 1 11.317146999999832 5.875735027184881 6.17618493451176e-14 -1 0 0
18 1 1.4146433749999432 7.400495350315064 1.414643375000197 0 0 0
19 1 2.287876130685886e-13 5.875735027184888 2.8292867499999477 0 0 0
20 1 1.4146433750001217 7.400495350315114 4.243930124999762 0 0 0
25 1 11.317146999999833 8.921976380154335 3.015526569719601e-14 -1 0 0
27 1 2.2708066946551442e-13 8.9219763801543 2.8292867500000374 0 0 0
89 1 2.8292867500000627 5.8757350271848745 11.317146999999819 0 0 -1
90 1 4.243930125000232 7.400495350315057 1.414643374999928 0 0 0
91 1 2.8292867499997887 5.8757350271849 2.8292867500001253 0 0 0
92 1 4.2439301249998165 7.4004953503151 4.24393012500007 0 0 0
97 1 2.829286750000034 8.921976380154357 11.31714699999983 0 0 -1
99 1 2.829286749999791 8.921976380154305 2.829286750000176 0 0 0
161 1 5.658573499999843 5.875735027184889 1.834842604548394e-13 0 0 0
162 1 7.073216874999813 7.400495350315051 1.4146433750002927 0 0 0
163 1 5.6585735000001804 5.875735027184914 2.8292867499997323 0 0 0
164 1 7.073216875000173 7.4004953503150945 4.243930124999789 0 0 0
169 1 5.658573499999803 8.921976380154335 1.2939173132239404e-13 0 0 0
171 1 5.658573500000186 8.921976380154282 2.829286749999787 0 0 0
233 1 8.487860250000267 5.8757350271848985 11.31714699999983 0 0 -1
234 1 9.90250362500002 7.400495350315069 1.4146433749997602 0 0 0
235 1 8.487860249999803 5.875735027184907 2.829286750000087 0 0 0
236 1 9.9025036249999 7.4004953503150945 4.243930125000094 0 0 0
241 1 8.487860250000317 8.92197638015432 11.317146999999846 0 0 -1
243 1 8.487860249999796 8.921976380154305 2.8292867500001044 0 0 0
26 1 1.4146433750000165 10.440120922285171 1.4146433750000584 0 0 0
28 1 1.4146433750000542 10.440120922285226 4.243930124999868 0 0 0
33 1 11.317146999999826 11.956282552550228 11.317146999999947 -1 0 -1
34 1 1.4146433750000513 13.473299684776942 1.4146433749999336 0 0 0
35 1 11.317146999999991 11.95628255255021 2.8292867500001995 -1 0 0
36 1 1.414643374999975 13.473299684776833 4.2439301250000465 0 0 0
98 1 4.243930125000143 10.440120922285285 1.4146433749999103 0 0 0
100 1 4.243930124999847 10.440120922285317 4.2439301250000625 0 0 0
105 1 2.8292867500000978 11.956282552550233 11.31714699999992 0 0 -1
106 1 4.243930125000009 13.473299684776924 1.4146433749999598 0 0 0
107 1 2.829286750000046 11.956282552550206 2.8292867500001595 0 0 0
108 1 4.243930124999841 13.473299684776832 4.243930125000021 0 0 0
170 1 7.073216874999914 10.440120922285212 1.4146433750002148 0 0 0
172 1 7.073216875000133 10.440120922285251 4.2439301249998875 0 0 0
177 1 5.658573499999781 11.956282552550194 2.0091820001308433e-14 0 0 0
178 1 7.073216875000045 13.47329968477697 1.4146433750000758 0 0 0
179 1 5.658573499999982 11.95628255255016 2.829286749999929 0 0 0
180 1 7.073216875000104 13.473299684776858 4.243930125000055 0 0 0
242 1 9.902503624999945 10.440120922285267 1.4146433749997798 0 0 0
244 1 9.902503624999976 10.44012092228532 4.243930125000051 0 0 0
249 1 8.487860250000287 11.956282552550215 11.317146999999958 0 0 -1
250 1 9.902503624999902 13.4732996847769 1.414643374999855 0 0 0
251 1 8.487860249999981 11.95628255255019 2.8292867500000773 0 0 0
252 1 9.902503625000081 13.473299684776793 4.24393012500006 0 0 0
41 1 11.317146999999972 14.99235055566468 6.809389668563589e-14 -1 0 0
42 1 1.4146433749999547 16.510651956794025 1.414643374999864 0 0 0
43 1 11.317146999999977 14.992350555664672 2.8292867500000574 -1 0 0
44 1 1.4146433749999254 16.510651956794007 4.243930125000168 0 0 0
113 1 2.8292867500000245 14.992350555664625 8.580892538018498e-14 0 0 0
114 1 4.2439301249999986 16.510651956793964 1.414643375000038 0 0 0
115 1 2.829286750000127 14.992350555664629 2.829286749999985 0 0 0
116 1 4.243930124999905 16.51065195679402 4.243930125000015 0 0 0
185 1 5.658573499999908 14.992350555664634 9.598934246212296e-14 0 0 0
186 1 7.073216875000077 16.510651956794 1.414643375000057 0 0 0
187 1 5.658573499999969 14.992350555664661 2.829286749999847 0 0 0
188 1 7.073216875000058 16.510651956794035 4.243930125000091 0 0 0
257 1 8.48786025000009 14.992350555664629 1.6909812439973207e-13 0 0 0
258 1 9.902503624999978 16.510651956793964 1.4146433749999308 0 0 0
259 1 8.48786024999992 14.992350555664649 2.829286749999853 0 0 0
260 1 9.902503625000117 16.510651956793993 4.243930125000105 0 0 0
49 1 9.892227438429424e-14 18.03056219105715 4.339066673215291e-14 0 0 0
50 1 1.4146433749999139 19.550086437257193 1.4146433749999145 0 0 0
51 1 11.317146999999995 18.030562191057186 2.8292867499999996 -1 0 0
52 1 1.414643374999981 19.55008643725713 4.243930125000127 0 0 0
57 1 5.843108846142102e-14 21.066747380008064 1.3037776378680553e-13 0 0 0
59 1 11.317146999999983 21.066747380008056 2.8292867499998913 -1 0 0
121 1 2.8292867499999357 18.03056219105715 11.317146999999999 0 0 -1
122 1 4.243930125000012 19.55008643725718 1.4146433750000995 0 0 0
123 1 2.829286750000127 18.03056219105719 2.8292867500000254 0 0 0
124 1 4.243930124999942 19.550086437257136 4.2439301249999755 0 0 0
129 1 2.8292867499999623 21.06674738000809 3.510245509439118e-14 0 0 0
131 1 2.8292867500000827 21.066747380008074 2.8292867499999588 0 0 0
193 1 5.658573499999988 18.030562191057165 11.317146999999967 0 0 -1
194 1 7.073216875000037 19.55008643725716 1.414643375000122 0 0 0
195 1 5.6585734999999975 18.030562191057207 2.829286749999946 0 0 0
196 1 7.073216875000051 19.550086437257143 4.243930125000008 0 0 0
201 1 5.658573499999973 21.066747380008096 8.665106234174701e-15 0 0 0
203 1 5.658573500000005 21.06674738000807 2.8292867499999184 0 0 0
265 1 8.487860249999972 18.030562191057154 3.1326279804832964e-14 0 0 0
266 1 9.902503625000042 19.550086437257203 1.4146433750000298 0 0 0
267 1 8.487860249999871 18.030562191057196 2.829286749999934 0 0 0
268 1 9.902503625000039 19.55008643725716 4.243930125000054 0 0 0
273 1 8.487860250000002 21.06674738000809 2.2729413440526574e-14 0 0 0
275 1 8.487860249999928 21.066747380008053 2.8292867499999264 0 0 0
58 1 1.414643374999967 22.576292537390366 1.4146433749999532 0 0 0
60 1 1.4146433750000074 22.576292537390422 4.243930125000055 0 0 0
65 1 0 24.13429539404 0 0 0 0
66 1 1.414643375 25.548937423841 1.414643375 0 0 0
67 1 0 24.13429539404 2.82928675 0 0 0
68 1 1.414643375 25.548937423841 4.243930125 0 0 0
130 1 4.243930125000008 22.576292537390376 1.414643375000021 0 0 0
132 1 4.243930124999979 22.57629253739041 4.243930124999995 0 0 0
137 1 2.82928675 24.13429539404 0 0 0 0
138 1 4.243930125 25.548937423841 1.414643375 0 0 0
139 1 2.82928675 24.13429539404 2.82928675 0 0 0
140 1 4.243930125 25.548937423841 4.243930125 0 0 0
202 1 7.073216875000006 22.576292537390376 1.414643375000044 0 0 0
204 1 7.0732168750000115 22.576292537390408 4.243930125000008 0 0 0
209 1 5.6585735 24.13429539404 0 0 0 0
210 1 7.073216875 25.548937423841 1.414643375 0 0 0
211 1 5.6585735 24.13429539404 2.82928675 0 0 0
212 1 7.073216875 25.548937423841 4.243930125 0 0 0
274 1 9.902503625000026 22.576292537390376 1.4146433749999976 0 0 0
276 1 9.902503625000003 22.576292537390437 4.243930125000027 0 0 0
281 1 8.48786025 24.13429539404 0 0 0 0
282 1 9.902503625 25.548937423841 1.414643375 0 0 0
283 1 8.48786025 24.13429539404 2.82928675 0 0 0
284 1 9.902503625 25.548937423841 4.243930125 0 0 0
5 1 0 0 5.6585735 0 0 0
6 1 1.414643375 1.414643557616 7.073216875 0 0 0
7 1 0 0 8.48786025 0 0 0
8 1 1.414643375 1.414643557616 9.902503625 0 0 0
13 1 0 2.82928660596 5.6585735 0 0 0
14 1 1.4146433749998704 4.356408082999559 7.07321687500005 0 0 0
15 1 0 2.82928660596 8.48786025 0 0 0
16 1 1.4146433750001168 4.356408082999538 9.902503624999971 0 0 0
77 1 2.82928675 0 5.6585735 0 0 0
78 1 4.243930125 1.414643557616 7.073216875 0 0 0
79 1 2.82928675 0 8.48786025 0 0 0
80 1 4.243930125 1.414643557616 9.902503625 0 0 0
85 1 2.82928675 2.82928660596 5.6585735 0 0 0
86 1 4.243930125000135 4.356408082999568 7.073216874999937 0 0 0
87 1 2.82928675 2.82928660596 8.48786025 0 0 0
88 1 4.243930124999894 4.356408082999536 9.90250362500006 0 0 0
149 1 5.6585735 0 5.6585735 0 0 0
150 1 7.073216875 1.414643557616 7.073216875 0 0 0
151 1 5.6585735 0 8.48786025 0 0 0
152 1 7.073216875 1.414643557616 9.902503625 0 0 0
157 1 5.6585735 2.82928660596 5.6585735 0 0 0
158 1 7.073216874999917 4.356408082999569 7.073216875000005 0 0 0
159 1 5.6585735 2.82928660596 8.48786025 0 0 0
160 1 7.0732168750001225 4.356408082999485 9.902503624999957 0 0 0
221 1 8.48786025 0 5.6585735 0 0 0
222 1 9.902503625 1.414643557616 7.073216875 0 0 0
223 1 8.48786025 0 8.48786025 0 0 0
224 1 9.902503625 1.414643557616 9.902503625 0 0 0
229 1 8.48786025 2.82928660596 5.6585735 0 0 0
230 1 9.902503625000078 4.356408082999548 7.073216874999888 0 0 0
231 1 8.48786025 2.82928660596 8.48786025 0 0 0
232 1 9.902503624999868 4.3564080829995415 9.902503625000174 0 0 0
21 1 11.317146999999924 5.875735027184888 5.65857350000022 -1 0 0
22 1 1.4146433749997187 7.400495350315074 7.0732168750001305 0 0 0
23 1 1.5671778592077125e-13 5.87573502718489 8.487860249999768 0 0 0
24 1 1.4146433750001859 7.400495350315086 9.902503624999918 0 0 0
29 1 11.31714699999995 8.921976380154327 5.658573500000171 -1 0 0
31 1 2.371753485699107e-13 8.921976380154371 8.487860249999748 0 0 0
93 1 2.829286750000084 5.875735027184858 5.658573499999888 0 0 0
94 1 4.243930125000311 7.400495350315027 7.073216874999898 0 0 0
95 1 2.829286749999917 5.875735027184867 8.48786025000016 0 0 0
96 1 4.243930124999877 7.400495350315058 9.902503625000106 0 0 0
101 1 2.8292867500000773 8.921976380154334 5.658573499999796 0 0 0
103 1 2.829286749999805 8.921976380154346 8.487860250000189 0 0 0
165 1 5.658573499999915 5.875735027184893 5.658573500000326 0 0 0
166 1 7.073216874999794 7.400495350315057 7.073216875000058 0 0 0
167 1 5.65857350000002 5.875735027184916 8.487860249999759 0 0 0
168 1 7.073216875000166 7.400495350315074 9.902503624999863 0 0 0
173 1 5.658573499999924 8.921976380154332 5.65857350000029 0 0 0
175 1 5.658573500000103 8.921976380154359 8.487860249999798 0 0 0
237 1 8.48786025000008 5.87573502718487 5.658573499999987 0 0 0
238 1 9.902503625000179 7.400495350315039 7.073216874999831 0 0 0
239 1 8.487860249999905 5.875735027184875 8.487860250000097 0 0 0
240 1 9.902503624999774 7.400495350315056 9.902503625000321 0 0 0
245 1 8.487860250000047 8.921976380154307 5.658573499999922 0 0 0
247 1 8.487860249999843 8.921976380154346 8.487860250000123 0 0 0
30 1 1.4146433749997718 10.440120922285152 7.073216875000178 0 0 0
32 1 1.4146433750001153 10.440120922285208 9.902503624999902 0 0 0
37 1 11.31714699999992 11.956282552550238 5.6585734999998945 -1 0 0
38 1 1.4146433749999723 13.473299684776867 7.073216875000111 0 0 0
39 1 1.021419980096796e-13 11.956282552550253 8.487860249999946 0 0 0
40 1 1.4146433750000476 13.473299684776835 9.902503624999909 0 0 0
102 1 4.243930125000275 10.440120922285203 7.073216874999906 0 0 0
104 1 4.243930124999966 10.440120922285255 9.902503625000126 0 0 0
109 1 2.8292867500001115 11.956282552550277 5.658573499999779 0 0 0
110 1 4.243930125000062 13.473299684776876 7.073216874999983 0 0 0
111 1 2.8292867499998824 11.956282552550283 8.487860250000137 0 0 0
112 1 4.243930124999974 13.47329968477684 9.902503625000032 0 0 0
174 1 7.073216874999808 10.440120922285184 7.073216875000087 0 0 0
176 1 7.073216875000062 10.440120922285232 9.902503624999818 0 0 0
181 1 5.658573499999936 11.956282552550203 5.6585735000001 0 0 0
182 1 7.0732168749999635 13.473299684776892 7.073216875000016 0 0 0
183 1 5.658573500000066 11.956282552550208 8.487860249999951 0 0 0
184 1 7.073216875000024 13.473299684776862 9.902503624999856 0 0 0
246 1 9.90250362500016 10.440120922285198 7.073216874999923 0 0 0
248 1 9.902503624999863 10.440120922285258 9.902503625000248 0 0 0
253 1 8.487860250000034 11.956282552550256 5.658573499999866 0 0 0
254 1 9.902503625000014 13.473299684776846 7.073216875000025 0 0 0
255 1 8.487860249999947 11.956282552550265 8.4878602500001 0 0 0
256 1 9.902503624999968 13.473299684776803 9.902503625000069 0 0 0
45 1 2.4392823241750994e-14 14.992350555664707 5.65857349999987 0 0 0
46 1 1.4146433749999676 16.510651956794 7.07321687499998 0 0 0
47 1 2.4123519571522594e-14 14.992350555664673 8.487860249999999 0 0 0
48 1 1.4146433749999627 16.51065195679404 9.902503624999992 0 0 0
117 1 2.8292867500000103 14.992350555664677 5.6585734999999255 0 0 0
118 1 4.243930125000016 16.51065195679399 7.073216875000024 0 0 0
119 1 2.829286749999984 14.992350555664643 8.48786025000001 0 0 0
120 1 4.24393012500003 16.510651956794046 9.902503624999932 0 0 0
189 1 5.658573500000052 14.992350555664672 5.6585735000000925 0 0 0
190 1 7.073216875000003 16.510651956793968 7.073216874999954 0 0 0
191 1 5.658573500000013 14.992350555664663 8.487860249999962 0 0 0
192 1 7.073216874999985 16.510651956794074 9.902503624999902 0 0 0
261 1 8.487860249999905 14.99235055566468 5.658573500000004 0 0 0
262 1 9.90250362500002 16.51065195679399 7.073216875000023 0 0 0
263 1 8.487860249999965 14.992350555664663 8.48786024999997 0 0 0
264 1 9.90250362500003 16.510651956794025 9.902503624999943 0 0 0
53 1 5.985966516547981e-14 18.030562191057154 5.658573499999884 0 0 0
54 1 1.4146433749999774 19.550086437257214 7.073216874999949 0 0 0
55 1 11.317146999999988 18.030562191057157 8.487860250000063 -1 0 0
56 1 1.4146433749999976 19.55008643725714 9.902503625000016 0 0 0
61 1 3.614133845181762e-14 21.066747380008042 5.658573500000037 0 0 0
63 1 11.317146999999961 21.066747380008035 8.487860249999947 -1 0 0
125 1 2.829286749999976 18.030562191057168 5.658573499999897 0 0 0
126 1 4.243930124999985 19.550086437257203 7.073216875000048 0 0 0
127 1 2.8292867500000467 18.030562191057168 8.487860250000075 0 0 0
128 1 4.243930125000034 19.550086437257157 9.902503624999893 0 0 0
133 1 2.82928674999997 21.06674738000806 5.6585735000000055 0 0 0
135 1 2.8292867500000507 21.066747380008056 8.48786024999999 0 0 0
197 1 5.65857350000005 18.030562191057165 5.658573499999968 0 0 0
198 1 7.073216875000029 19.55008643725719 7.073216874999983 0 0 0
199 1 5.658573499999981 18.030562191057168 8.487860250000116 0 0 0
200 1 7.073216875000012 19.550086437257146 9.902503624999895 0 0 0
205 1 5.658573500000031 21.066747380008078 5.658573500000025 0 0 0
207 1 5.658573499999967 21.06674738000805 8.487860250000038 0 0 0
269 1 8.487860249999905 18.030562191057165 5.658573499999935 0 0 0
270 1 9.902503625000021 19.55008643725723 7.073216875000043 0 0 0
271 1 8.487860249999983 18.030562191057193 8.48786025000009 0 0 0
272 1 9.902503624999962 19.550086437257168 9.902503624999888 0 0 0
277 1 8.487860249999958 21.066747380008053 5.658573500000014 0 0 0
279 1 8.487860250000011 21.066747380008035 8.487860250000034 0 0 0
62 1 1.4146433749999916 22.5762925373904 7.073216874999967 0 0 0
64 1 1.414643375000019 22.576292537390415 9.902503625000026 0 0 0
69 1 0 24.13429539404 5.6585735 0 0 0
70 1 1.414643375 25.548937423841 7.073216875 0 0 0
71 1 0 24.13429539404 8.48786025 0 0 0
72 1 1.414643375 25.548937423841 9.902503625 0 0 0
134 1 4.243930124999992 22.576292537390398 7.073216875000008 0 0 0
136 1 4.243930125000014 22.57629253739039 9.902503624999978 0 0 0
141 1 2.82928675 24.13429539404 5.6585735 0 0 0
142 1 4.243930125 25.548937423841 7.073216875 0 0 0
143 1 2.82928675 24.13429539404 8.48786025 0 0 0
144 1 4.243930125 25.548937423841 9.902503625 0 0 0
206 1 7.073216875000001 22.576292537390408 7.073216874999979 0 0 0
208 1 7.073216875000009 22.576292537390405 9.902503624999975 0 0 0
213 1 5.6585735 24.13429539404 5.6585735 0 0 0
214 1 7.073216875 25.548937423841 7.073216875 0 0 0
215 1 5.6585735 24.13429539404 8.48786025 0 0 0
216 1 7.073216875 25.548937423841 9.902503625 0 0 0
278 1 9.902503625000016 22.57629253739041 7.073216875000006 0 0 0
280 1 9.902503624999964 22.57629253739042 9.902503624999975 0 0 0
285 1 8.48786025 24.13429539404 5.6585735 0 0 0
286 1 9.902503625 25.548937423841 7.073216875 0 0 0
287 1 8.48786025 24.13429539404 8.48786025 0 0 0
288 1 9.902503625 25.548937423841 9.902503625 0 0 0

Velocities

1 0 0 0
2 0 0 0
3 0 0 0
4 0 0 0
9 0 0 0
10 0 0 0
11 0 0 0
12 0 0 0
73 0 0 0
74 0 0 0
75 0 0 0
76 0 0 0
81 0 0 0
82 0 0 0
83 0 0 0
84 0 0 0
145 0 0 0
146 0 0 0
147 0 0 0
148 0 0 0
153 0 0 0
154 0 0 0
155 0 0 0
156 0 0 0
217 0 0 0
218 0 0 0
219 0 0 0
220 0 0 0
225 0 0 0
226 0 0 0
227 0 0 0
228 0 0 0
17 0 0 0
18 0 0 0
19 0 0 0
20 0 0 0
25 0 0 0
27 0 0 0
89 0 0 0
90 0 0 0
91 0 0 0
92 0 0 0
97 0 0 0
99 0 0 0
161 0 0 0
162 0 0 0
163 0 0 0
164 0 0 0
169 0 0 0
171 0 0 0
233 0 0 0
234 0 0 0
235 0 0 0
236 0 0 0
241 0 0 0
243 0 0 0
26 0 0 0
28 0 0 0
33 0 0 0
34 0 0 0
35 0 0 0
36 0 0 0
98 0 0 0
100 0 0 0
105 0 0 0
106 0 0 0
107 0 0 0
108 0 0 0
170 0 0 0
172 0 0 0
177 0 0 0
178 0 0 0
179 0 0 0
180 0 0 0
242 0 0 0
244 0 0 0
249 0 0 0
250 0 0 0
251 0 0 0
252 0 0 0
41 0 0 0
42 0 0 0
43 0 0 0
44 0 0 0
113 0 0 0
114 0 0 0
115 0 0 0
116 0 0 0
185 0 0 0
186 0 0 0
187 0 0 0
188 0 0 0
257 0 0 0
258 0 0 0
259 0 0 0
260 0 0 0
49 0 0 0
50 0 0 0
51 0 0 0
52 0 0 0
57 0 0 0
59 0 0 0
121 0 0 0
122 0 0 0
123 0 0 0
124 0 0 0
129 0 0 0
131 0 0 0
193 0 0 0
194 0 0 0
195 0 0 0
196 0 0 0
201 0 0 0
203 0 0 0
265 0 0 0
266 0 0 0
267 0 0 0
268 0 0 0
273 0 0 0
275 0 0 0
58 0 0 0
60 0 0 0
65 0 0 0
66 0 0 0
67 0 0 0
68 0 0 0
130 0 0 0
132 0 0 0
137 0 0 0
138 0 0 0
139 0 0 0
140 0 0 0
202 0 0 0
204 0 0 0
209 0 0 0
210 0 0 0
211 0 0 0
212 0 0 0
274 0 0 0
276 0 0 0
281 0 0 0
282 0 0 0
283 0 0 0
284 0 0 0
5 0 0 0
6 0 0 0
7 0 0 0
8 0 0 0
13 0 0 0
14 0 0 0
15 0 0 0
16 0 0 0
77 0 0 0
78 0 0 0
79 0 0 0
80 0 0 0
85 0 0 0
86 0 0 0
87 0 0 0
88 0 0 0
149 0 0 0
150 0 0 0
151 0 0 0
152 0 0 0
157 0 0 0
158 0 0 0
159 0 0 0
160 0 0 0
221 0 0 0
222 0 0 0
223 0 0 0
224 0 0 0
229 0 0 0
230 0 0 0
231 0 0 0
232 0 0 0
21 0 0 0
22 0 0 0
23 0 0 0
24 0 0 0
29 0 0 0
31 0 0 0
93 0 0 0
94 0 0 0
95 0 0 0
96 0 0 0
101 0 0 0
103 0 0 0
165 0 0 0
166 0 0 0
167 0 0 0
168 0 0 0
173 0 0 0
175 0 0 0
237 0 0 0
238 0 0 0
239 0 0 0
240 0 0 0
245 0 0 0
247 0 0 0
30 0 0 0
32 0 0 0
37 0 0 0
38 0 0 0
39 0 0 0
40 0 0 0
102 0 0 0
104 0 0 0
109 0 0 0
110 0 0 0
111 0 0 0
112 0 0 0
174 0 0 0
176 0 0 0
181 0 0 0
182 0 0 0
183 0 0 0
184 0 0 0
246 0 0 0
248 0 0 0
253 0 0 0
254 0 0 0
255 0 0 0
256 0 0 0
45 0 0 0
46 0 0 0
47 0 0 0
48 0 0 0
117 0 0 0
118 0 0 0
119 0 0 0
120 0 0 0
189 0 0 0
190 0 0 0
191 0 0 0
192 0 0 0
261 0 0 0
262 0 0 0
263 0 0 0
264 0 0 0
53 0 0 0
54 0 0 0
55 0 0 0
56 0 0 0
61 0 0 0
63 0 0 0
125 0 0 0
126 0 0 0
127 0 0 0
128 0 0 0
133 0 0 0
135 0 0 0
197 0 0 0
198 0 0 0
199 0 0 0
200 0 0 0
205 0 0 0
207 0 0 0
269 0 0 0
270 0 0 0
271 0 0 0
272 0 0 0
277 0 0 0
279 0 0 0
62 0 0 0
64 0 0 0
69 0 0 0
70 0 0 0
71 0 0 0
72 0 0 0
134 0 0 0
136 0 0 0
141 0 0 0
142 0 0 0
143 0 0 0
144 0 0 0
206 0 0 0
208 0 0 0
213 0 0 0
214 0 0 0
215 0 0 0
216 0 0 0
278 0 0 0
280 0 0 0
285 0 0 0
286 0 0 0
287 0 0 0
288 0 0 0
