LAMMPS data file via write_data, version 29 Aug 2024, timestep = 31, units = metal

240 atoms
1 atom types

0 13.98284573 xlo xhi
0 27.31841258 ylo yhi
0 8.07299975 zlo zhi

Masses

1 55.8

Atoms # atomic

14 1 1.104123392353 0.978309288037 6.019465798333 0 0 0
20 1 2.26936048991 1.511660948117 4.001215860833 0 0 0
119 1 2.2693594448573315 4.213178520779709 8.03771573582831 0 0 0
162 1 4.599834824853 3.240284549262 8.037715735833 0 0 0
164 1 3.434597727296 2.374575787602 1.982965923333 0 0 0
165 1 1.104123392353 3.240284549262 1.982965923333 0 0 0
171 1 4.599834824853 0.978309288037 4.001215860833 0 0 0
207 1 4.599834824853 3.240284549262 4.001215860833 0 0 0
209 1 3.434597727296 2.374575787602 6.019465798333 0 0 0
210 1 1.104123392353 3.240284549262 6.019465798333 0 0 0
211 1 2.2693594448095467 4.213178520785683 4.001215860844555 0 0 0
227 1 4.599834824853 0.978309288037 8.037715735833 0 0 0
230 1 1.104123392353 0.978309288037 1.982965923333 0 0 0
231 1 2.26936048991 1.511660948117 8.037715735833 0 0 0
16 1 8.095546257353 3.240284549262 6.019465798333 0 0 0
21 1 9.26078230984409 4.213178520779275 4.001215860853543 0 0 0
25 1 6.930309159796 2.374575787602 4.001215860833 0 0 0
124 1 8.095546257353 3.240284549262 1.982965923333 0 0 0
125 1 9.260782309809928 4.213178520774223 8.0377157358722 0 0 0
159 1 8.095546257353 0.978309288037 6.019465798333 0 0 0
160 1 9.26078335491 1.511660948117 4.001215860833 0 0 0
163 1 5.765070877320129 4.213178520777658 1.9829659233402777 0 0 0
168 1 8.095546257353 0.978309288037 1.982965923333 0 0 0
169 1 9.26078335491 1.511660948117 8.037715735833 0 0 0
172 1 5.76507192241 1.511660948117 6.019465798333 0 0 0
206 1 6.930309159796 2.374575787602 8.037715735833 0 0 0
208 1 5.765070877350424 4.213178520779107 6.01946579832243 0 0 0
228 1 5.76507192241 1.511660948117 1.982965923333 0 0 0
1 1 11.591257689853 3.240284549262 4.001215860833 0 0 0
7 1 12.75649374230862 4.213178520780643 6.019465798322662 0 0 0
11 1 10.426020592296 2.374575787602 6.019465798333 0 0 0
33 1 11.591257689853 0.978309288037 4.001215860833 0 0 0
36 1 12.75649478741 1.511660948117 6.019465798333 0 0 0
120 1 13.921732024796 2.374575787602 8.037715735833 0 0 0
121 1 11.591257689853 3.240284549262 8.037715735833 0 0 0
122 1 12.756493742342066 4.213178520781081 1.9829659232922767 0 0 0
123 1 10.426020592296 2.374575787602 1.982965923333 0 0 0
166 1 12.75649478741 1.511660948117 1.982965923333 0 0 0
213 1 13.921732024796 2.374575787602 4.001215860833 0 0 0
233 1 11.591257689853 0.978309288037 8.037715735833 0 0 0
12 1 3.4345999267026297 5.130494768782238 1.982965923301331 0 0 0
19 1 1.104120542161511 6.005455501002637 1.9829659233084496 0 0 0
28 1 2.269363304107398 6.89834846098256 8.037715735873174 0 0 0
31 1 4.5998319746427825 6.005455501003414 8.0377157358615 0 0 0
72 1 4.599831974746561 6.005455500999848 4.0012158608233825 0 0 0
74 1 3.434599926641969 5.13049476878836 6.019465798348693 0 0 0
75 1 1.1041205422512994 6.005455501003973 6.019465798224605 0 0 0
76 1 2.2693633039749987 6.898348460974017 4.001215860931393 0 0 0
106 1 4.59983635212267 8.7220050383561 4.001215860865567 0 0 0
108 1 3.4345954949408375 7.794355812205886 6.019465798304863 0 0 0
109 1 1.1041249196101026 8.722005038348517 6.019465798251238 0 0 0
110 1 2.269359607585038 9.621769682116238 4.001215860889843 0 0 0
201 1 4.599836352045624 8.722005038347401 8.037715735900477 0 0 0
203 1 3.4345954950238227 7.794355812208445 1.9829659232359103 0 0 0
204 1 1.104124919537285 8.722005038349485 1.9829659232961414 0 0 0
205 1 2.269359607635725 9.621769682114374 8.037715735862358 0 0 0
5 1 5.765074736526436 6.898348460983834 1.9829659233543595 0 0 0
69 1 8.095543407212414 6.005455501002482 1.982965923306669 0 0 0
70 1 9.26078616901197 6.8983484609840096 8.037715735865492 0 0 0
71 1 6.930311359220099 5.1304947687867895 8.03771573581765 0 0 0
73 1 5.765074736603759 6.8983484609765 6.019465798296067 0 0 0
81 1 8.095543407134977 6.005455501000716 6.019465798349287 0 0 0
107 1 5.765071040131947 9.621769682116168 6.019465798280028 0 0 0
130 1 8.095547784595592 8.722005038350995 1.982965923308514 0 0 0
131 1 9.260782472596294 9.62176968211556 8.037715735841365 0 0 0
132 1 6.9303069275221745 7.794355812205798 8.037715735822621 0 0 0
188 1 8.095547784548703 8.722005038353705 6.019465798353457 0 0 0
189 1 9.260782472655984 9.621769682115982 4.001215860823084 0 0 0
190 1 6.930306927431369 7.7943558122019025 4.001215860854388 0 0 0
199 1 9.260786169110782 6.898348460977332 4.001215860817255 0 0 0
200 1 6.93031135915359 5.130494768792086 4.001215860853261 0 0 0
202 1 5.765071040098496 9.621769682110687 1.9829659233132324 0 0 0
32 1 13.921734224134342 5.130494768778786 8.037715735905635 0 0 0
35 1 11.59125483973992 6.0054555010046275 8.037715735884088 0 0 0
38 1 12.756497601584773 6.898348460980939 1.9829659232133714 0 0 0
68 1 10.426022791666417 5.130494768785396 1.9829659232973762 0 0 0
77 1 13.921734224234758 5.1304947687857245 4.001215860865122 0 0 0
78 1 11.591254839629793 6.005455501002552 4.001215860936327 0 0 0
79 1 12.75649760148901 6.898348460977511 6.019465798285434 0 0 0
80 1 10.426022791731087 5.1304947687881155 6.0194657982501685 0 0 0
111 1 13.921729792558537 7.794355812205874 4.001215860880478 0 0 0
112 1 11.59125921702077 8.722005038352702 4.001215860858541 0 0 0
126 1 13.921729792445007 7.794355812211952 8.037715735935505 0 0 0
127 1 11.591259217103653 8.722005038345756 8.037715735819111 0 0 0
128 1 12.756493905148979 9.621769682116042 1.9829659233128858 0 0 0
129 1 10.426018359958304 7.794355812204097 1.9829659233506716 0 0 0
186 1 12.756493905094544 9.621769682118481 6.01946579834577 0 0 0
187 1 10.426018360035142 7.7943558122061205 6.019465798299021 0 0 0
51 1 4.599834688836092 11.413551153593906 4.001215860845668 0 0 0
53 1 3.4345981113780657 10.518423092881799 6.019465798313382 0 0 0
54 1 1.104123256330748 11.413551153596858 6.019465798326243 0 0 0
64 1 3.43459766717333 13.575308214216127 6.0194657983332815 0 0 0
152 1 3.4345981113990014 10.518423092884303 1.982965923299308 0 0 0
153 1 1.104123256317122 11.41355115359414 1.982965923335096 0 0 0
154 1 2.2693605662517733 12.263619642557334 8.037715735832558 0 0 0
177 1 2.2693605662470104 12.263619642556755 4.001215860835211 0 0 0
191 1 4.599834688820009 11.413551153596575 8.037715735850016 0 0 0
195 1 3.434597667173275 13.57530821421524 1.9829659233336785 0 0 0
3 1 6.930309543862918 10.518423092882864 4.0012158608604995 0 0 0
40 1 6.930309099673279 13.575308214215996 8.037715735833196 0 0 0
48 1 8.09554612133702 11.413551153595758 1.9829659233167118 0 0 0
49 1 9.260783431246361 12.263619642556156 8.037715735837947 0 0 0
50 1 6.930309543898845 10.518423092882264 8.037715735848556 0 0 0
52 1 5.765071998749566 12.263619642556174 6.019465798325766 0 0 0
98 1 6.930309099673528 13.57530821421609 4.001215860833031 0 0 0
184 1 8.095546121323757 11.41355115359659 6.019465798327733 0 0 0
185 1 9.26078343125191 12.263619642555897 4.001215860835272 0 0 0
192 1 5.765071998746315 12.263619642557769 1.9829659233285915 0 0 0
34 1 10.42602053217367 13.575308214215983 1.9829659233325947 0 0 0
66 1 13.921731964672931 13.575308214216113 4.001215860832683 0 0 0
96 1 10.426020532173077 13.575308214216872 6.019465798332797 0 0 0
155 1 13.92173240887282 10.518423092880015 8.03771573584605 0 0 0
156 1 11.591257553834868 11.413551153597508 8.037715735825657 0 0 0
157 1 12.75649486375298 12.2636196425567 1.9829659233333266 0 0 0
158 1 10.426020976365987 10.51842309288281 1.982965923346381 0 0 0
179 1 13.921732408903845 10.518423092881553 4.001215860825825 0 0 0
181 1 11.591257553817353 11.413551153595753 4.001215860835815 0 0 0
182 1 12.75649486374806 12.263619642555788 6.019465798336152 0 0 0
183 1 10.426020976394662 10.518423092878285 6.01946579832348 0 0 0
197 1 13.921731964673668 13.575308214216014 8.037715735832542 0 0 0
63 1 2.269360729605218 14.888592595513298 4.001215860830687 0 0 0
65 1 4.599834172233573 15.736755475812213 4.0012158608285855 0 0 0
67 1 1.1041227397352016 15.736755475812663 6.019465798335495 0 0 0
89 1 2.269358336227259 17.53048331700767 8.037715735828577 0 0 0
90 1 3.4345990583846056 16.63231691789781 1.982965923340002 0 0 0
174 1 2.2693583362194674 17.530483317011445 4.001215860813473 0 0 0
175 1 3.434599058386745 16.632316917890765 6.019465798340113 0 0 0
194 1 2.2693607296038305 14.888592595513042 8.037715735831542 0 0 0
196 1 4.599834172232993 15.736755475811568 8.03771573582954 0 0 0
198 1 1.104122739739779 15.736755475811211 1.9829659233362544 0 0 0
24 1 9.260783594603083 14.888592595512392 8.037715735832746 0 0 0
41 1 8.095545604734939 15.736755475812148 1.98296592333216 0 0 0
43 1 9.260781201218006 17.530483317012873 4.001215860825538 0 0 0
46 1 6.930310490888682 16.63231691789174 4.001215860834857 0 0 0
62 1 5.765072162105389 14.888592595512632 6.0194657983351725 0 0 0
88 1 5.765069768711935 17.530483317005174 1.9829659233359256 0 0 0
95 1 9.260783594603806 14.888592595512595 4.001215860833247 0 0 0
99 1 8.095545604732068 15.736755475813435 6.019465798334597 0 0 0
101 1 9.260781201199624 17.53048331700932 8.03771573583986 0 0 0
104 1 6.9303104908952555 16.632316917895185 8.037715735828577 0 0 0
173 1 5.765069768719523 17.530483317013786 6.019465798335754 0 0 0
193 1 5.765072162104731 14.888592595512776 1.9829659233349222 0 0 0
9 1 12.75649502710127 14.888592595512899 1.9829659233330597 0 0 0
39 1 11.59125703723993 15.736755475812002 8.037715735834048 0 0 0
42 1 12.75649263372224 17.530483317016337 6.019465798346929 0 0 0
44 1 10.426021923388895 16.63231691788838 6.019465798328936 0 0 0
92 1 13.92173335587911 16.632316917894933 8.037715735825243 0 0 0
94 1 12.75649502710428 14.888592595512618 6.01946579833295 0 0 0
97 1 11.591257037235028 15.736755475812812 4.0012158608319215 0 0 0
100 1 12.756492633712774 17.530483317007818 1.9829659233323982 0 0 0
102 1 10.426021923388063 16.632316917895434 1.9829659233371593 0 0 0
178 1 13.921733355886634 16.632316917891597 4.001215860832377 0 0 0
91 1 4.599837611801645 18.427383345627852 8.03771573582129 0 0 0
93 1 1.1041261793191388 18.42738334562878 1.9829659233590264 0 0 0
114 1 2.2693639401496273 20.24199629622054 8.037715735817905 0 0 0
115 1 3.4345944804248436 19.354017597720826 1.9829659233284926 0 0 0
116 1 4.599831649833592 21.144176131535197 8.037715735817212 0 0 0
118 1 1.1041202173100826 21.14417613153309 1.9829659233624433 0 0 0
134 1 2.269363940086975 20.241996296216865 4.001215860829698 0 0 0
135 1 3.4345944804656336 19.354017597749714 6.019465798352236 0 0 0
136 1 4.599831649885255 21.1441761315395 4.001215860841649 0 0 0
138 1 1.1041202173688707 21.14417613154415 6.0194657983241555 0 0 0
176 1 4.599837611810075 18.42738334562048 4.001215860834975 0 0 0
180 1 1.1041261792974857 18.42738334561345 6.019465798341477 0 0 0
222 1 3.434600196372835 22.01333108377003 1.9829659233213923 0 0 0
224 1 3.434600196350945 22.013331083743715 6.019465798350087 0 0 0
23 1 6.930311628826415 22.01333108375526 4.001215860801515 0 0 0
47 1 8.095549044308635 18.427383345615404 6.0194657983373965 0 0 0
83 1 9.260786805119315 20.241996296220268 4.001215860823035 0 0 0
86 1 6.930305912935916 19.354017597737364 4.001215860820404 0 0 0
87 1 8.095543082404738 21.144176131542977 6.019465798351908 0 0 0
105 1 8.095549044328267 18.427383345630425 1.982965923331061 0 0 0
113 1 5.76507537263223 20.24199629623045 1.9829659233459795 0 0 0
133 1 5.765075372566162 20.24199629621091 6.019465798327158 0 0 0
147 1 9.26078680510962 20.241996296223427 8.037715735809241 0 0 0
150 1 6.930305912944832 19.354017597726582 8.037715735840475 0 0 0
151 1 8.095543082343044 21.144176131532177 1.982965923347371 0 0 0
217 1 6.930311628855638 22.013331083765184 8.037715735836825 0 0 0
15 1 10.426023061323827 22.013331083742465 6.019465798353372 0 0 0
45 1 11.591260476806143 18.427383345616974 4.001215860829221 0 0 0
56 1 13.9217344938403 22.01333108375839 8.03771573584036 0 0 0
60 1 10.426023061347669 22.013331083769128 1.9829659233626444 0 0 0
82 1 12.756498237600049 20.241996296208793 6.019465798372612 0 0 0
84 1 10.426017345442043 19.354017597750417 6.019465798341902 0 0 0
85 1 11.591254514840024 21.14417613154029 4.001215860816026 0 0 0
103 1 11.591260476838265 18.42738334562468 8.037715735817034 0 0 0
117 1 13.921728777901166 19.354017597732557 8.037715735819106 0 0 0
137 1 13.92172877795166 19.35401759774289 4.001215860800137 0 0 0
146 1 12.756498237663651 20.241996296227914 1.982965923348997 0 0 0
148 1 10.426017345403949 19.35401759772117 1.9829659233519177 0 0 0
149 1 11.591254514863934 21.1441761315357 8.03771573579257 0 0 0
226 1 13.921734493875826 22.013331083748902 4.001215860806668 0 0 0
2 1 1.104123392353 23.862058453958 6.019465798333 0 0 0
4 1 3.434597727296 27.21037779161 6.019465798333 0 0 0
13 1 2.26936048991 25.590681807918 8.037715735833 0 0 0
17 1 3.434597727296 24.727767215617 1.982965923333 0 0 0
22 1 4.599834824853 26.124033467998 8.037715735833 0 0 0
30 1 1.104123392353 26.124033467998 1.982965923333 0 0 0
55 1 4.599834824853 23.862058453958 8.037715735833 0 0 0
57 1 1.104123392353 23.862058453958 1.982965923333 0 0 0
139 1 2.26936048991 25.590681807918 4.001215860833 0 0 0
140 1 3.434597727296 24.727767215617 6.019465798333 0 0 0
141 1 4.599834824853 26.124033467998 4.001215860833 0 0 0
143 1 1.104123392353 26.124033467998 6.019465798333 0 0 0
220 1 2.269359294623704 22.896695626624673 8.037715735826545 0 0 0
223 1 2.269359294600846 22.89669562662646 4.001215860836085 0 0 0
225 1 4.599834824853 23.862058453958 4.001215860833 0 0 0
229 1 3.434597727296 27.21037779161 1.982965923333 0 0 0
8 1 5.76507192241 25.590681807918 1.982965923333 0 0 0
10 1 9.260782159632765 22.896695626620993 4.001215860824215 0 0 0
27 1 8.095546257353 23.862058453958 6.019465798333 0 0 0
59 1 9.260782159618895 22.896695626619515 8.037715735814187 0 0 0
145 1 9.26078335491 25.590681807918 4.001215860833 0 0 0
161 1 6.930309159796 27.21037779161 4.001215860833 0 0 0
170 1 6.930309159796 27.21037779161 8.037715735833 0 0 0
215 1 6.930309159796 24.727767215617 4.001215860833 0 0 0
216 1 8.095546257353 26.124033467998 6.019465798333 0 0 0
218 1 5.765070727116867 22.896695626612146 1.9829659233458883 0 0 0
219 1 8.095546257353 23.862058453958 1.982965923333 0 0 0
221 1 5.765070727114644 22.896695626628954 6.01946579833593 0 0 0
235 1 9.26078335491 25.590681807918 8.037715735833 0 0 0
238 1 6.930309159796 24.727767215617 8.037715735833 0 0 0
239 1 8.095546257353 26.124033467998 1.982965923333 0 0 0
240 1 5.76507192241 25.590681807918 6.019465798333 0 0 0
6 1 12.756493592122585 22.89669562663445 6.019465798343813 0 0 0
18 1 11.591257689853 23.862058453958 4.001215860833 0 0 0
26 1 13.921732024796 24.727767215617 8.037715735833 0 0 0
29 1 13.921732024796 27.21037779161 4.001215860833 0 0 0
37 1 10.426020592296 27.21037779161 6.019465798333 0 0 0
58 1 12.75649359212351 22.896695626617902 1.9829659233328476 0 0 0
61 1 11.591257689853 23.862058453958 8.037715735833 0 0 0
142 1 13.921732024796 24.727767215617 4.001215860833 0 0 0
144 1 12.75649478741 25.590681807918 6.019465798333 0 0 0
167 1 10.426020592296 27.21037779161 1.982965923333 0 0 0
212 1 10.426020592296 24.727767215617 6.019465798333 0 0 0
214 1 11.591257689853 26.124033467998 4.001215860833 0 0 0
232 1 13.921732024796 27.21037779161 8.037715735833 0 0 0
234 1 12.75649478741 25.590681807918 1.982965923333 0 0 0
236 1 10.426020592296 24.727767215617 1.982965923333 0 0 0
237 1 11.591257689853 26.124033467998 8.037715735833 0 0 0

Velocities

14 0 0 0
20 0 0 0
119 0 0 0
162 0 0 0
164 0 0 0
165 0 0 0
171 0 0 0
207 0 0 0
209 0 0 0
210 0 0 0
211 0 0 0
227 0 0 0
230 0 0 0
231 0 0 0
16 0 0 0
21 0 0 0
25 0 0 0
124 0 0 0
125 0 0 0
159 0 0 0
160 0 0 0
163 0 0 0
168 0 0 0
169 0 0 0
172 0 0 0
206 0 0 0
208 0 0 0
228 0 0 0
1 0 0 0
7 0 0 0
11 0 0 0
33 0 0 0
36 0 0 0
120 0 0 0
121 0 0 0
122 0 0 0
123 0 0 0
166 0 0 0
213 0 0 0
233 0 0 0
12 0 0 0
19 0 0 0
28 0 0 0
31 0 0 0
72 0 0 0
74 0 0 0
75 0 0 0
76 0 0 0
106 0 0 0
108 0 0 0
109 0 0 0
110 0 0 0
201 0 0 0
203 0 0 0
204 0 0 0
205 0 0 0
5 0 0 0
69 0 0 0
70 0 0 0
71 0 0 0
73 0 0 0
81 0 0 0
107 0 0 0
130 0 0 0
131 0 0 0
132 0 0 0
188 0 0 0
189 0 0 0
190 0 0 0
199 0 0 0
200 0 0 0
202 0 0 0
32 0 0 0
35 0 0 0
38 0 0 0
68 0 0 0
77 0 0 0
78 0 0 0
79 0 0 0
80 0 0 0
111 0 0 0
112 0 0 0
126 0 0 0
127 0 0 0
128 0 0 0
129 0 0 0
186 0 0 0
187 0 0 0
51 0 0 0
53 0 0 0
54 0 0 0
64 0 0 0
152 0 0 0
153 0 0 0
154 0 0 0
177 0 0 0
191 0 0 0
195 0 0 0
3 0 0 0
40 0 0 0
48 0 0 0
49 0 0 0
50 0 0 0
52 0 0 0
98 0 0 0
184 0 0 0
185 0 0 0
192 0 0 0
34 0 0 0
66 0 0 0
96 0 0 0
155 0 0 0
156 0 0 0
157 0 0 0
158 0 0 0
179 0 0 0
181 0 0 0
182 0 0 0
183 0 0 0
197 0 0 0
63 0 0 0
65 0 0 0
67 0 0 0
89 0 0 0
90 0 0 0
174 0 0 0
175 0 0 0
194 0 0 0
196 0 0 0
198 0 0 0
24 0 0 0
41 0 0 0
43 0 0 0
46 0 0 0
62 0 0 0
88 0 0 0
95 0 0 0
99 0 0 0
101 0 0 0
104 0 0 0
173 0 0 0
193 0 0 0
9 0 0 0
39 0 0 0
42 0 0 0
44 0 0 0
92 0 0 0
94 0 0 0
97 0 0 0
100 0 0 0
102 0 0 0
178 0 0 0
91 0 0 0
93 0 0 0
114 0 0 0
115 0 0 0
116 0 0 0
118 0 0 0
134 0 0 0
135 0 0 0
136 0 0 0
138 0 0 0
176 0 0 0
180 0 0 0
222 0 0 0
224 0 0 0
23 0 0 0
47 0 0 0
83 0 0 0
86 0 0 0
87 0 0 0
105 0 0 0
113 0 0 0
133 0 0 0
147 0 0 0
150 0 0 0
151 0 0 0
217 0 0 0
15 0 0 0
45 0 0 0
56 0 0 0
60 0 0 0
82 0 0 0
84 0 0 0
85 0 0 0
103 0 0 0
117 0 0 0
137 0 0 0
146 0 0 0
148 0 0 0
149 0 0 0
226 0 0 0
2 0 0 0
4 0 0 0
13 0 0 0
17 0 0 0
22 0 0 0
30 0 0 0
55 0 0 0
57 0 0 0
139 0 0 0
140 0 0 0
141 0 0 0
143 0 0 0
220 0 0 0
223 0 0 0
225 0 0 0
229 0 0 0
8 0 0 0
10 0 0 0
27 0 0 0
59 0 0 0
145 0 0 0
161 0 0 0
170 0 0 0
215 0 0 0
216 0 0 0
218 0 0 0
219 0 0 0
221 0 0 0
235 0 0 0
238 0 0 0
239 0 0 0
240 0 0 0
6 0 0 0
18 0 0 0
26 0 0 0
29 0 0 0
37 0 0 0
58 0 0 0
61 0 0 0
142 0 0 0
144 0 0 0
167 0 0 0
212 0 0 0
214 0 0 0
232 0 0 0
234 0 0 0
236 0 0 0
237 0 0 0
