LAMMPS data file via write_data, version 29 Aug 2024, timestep = 7, units = metal

288 atoms
1 atom types

0 11.317147 xlo xhi
0 29.963582 ylo yhi
0 11.317147 zlo zhi

Masses

1 55.8

Atoms # atomic

1 1 0 0 0 0 0 0
2 1 1.414643375 1.414643557616 1.414643375 0 0 0
3 1 0 0 2.82928675 0 0 0
4 1 1.414643375 1.414643557616 4.243930125 0 0 0
9 1 0 2.82928660596 0 0 0 0
10 1 1.4146433750000025 4.236975446530949 1.4146433750000038 0 0 0
11 1 0 2.82928660596 2.82928675 0 0 0
12 1 1.4146433749999983 4.236975446530961 4.243930125000001 0 0 0
73 1 2.82928675 0 0 0 0 0
74 1 4.243930125 1.414643557616 1.414643375 0 0 0
75 1 2.82928675 0 2.82928675 0 0 0
76 1 4.243930125 1.414643557616 4.243930125 0 0 0
81 1 2.82928675 2.82928660596 0 0 0 0
82 1 4.243930125 4.236975446530942 1.4146433749999983 0 0 0
83 1 2.82928675 2.82928660596 2.82928675 0 0 0
84 1 4.243930125000008 4.236975446530955 4.243930125000007 0 0 0
145 1 5.6585735 0 0 0 0 0
146 1 7.073216875 1.414643557616 1.414643375 0 0 0
147 1 5.6585735 0 2.82928675 0 0 0
148 1 7.073216875 1.414643557616 4.243930125 0 0 0
153 1 5.6585735 2.82928660596 0 0 0 0
154 1 7.073216874999997 4.236975446530944 1.4146433749999976 0 0 0
155 1 5.6585735 2.82928660596 2.82928675 0 0 0
156 1 7.073216874999995 4.23697544653095 4.243930125000002 0 0 0
217 1 8.48786025 0 0 0 0 0
218 1 9.902503625 1.414643557616 1.414643375 0 0 0
219 1 8.48786025 0 2.82928675 0 0 0
220 1 9.902503625 1.414643557616 4.243930125 0 0 0
225 1 8.48786025 2.82928660596 0 0 0 0
226 1 9.902503624999998 4.236975446530952 1.4146433750000007 0 0 0
227 1 8.48786025 2.82928660596 2.82928675 0 0 0
228 1 9.902503625 4.236975446530958 4.243930125 0 0 0
17 1 2.6312001955762816e-15 5.649208027465684 11.317146999999993 0 0 -1
18 1 1.4146433750000011 7.063164564411915 1.414643375000007 0 0 0
19 1 11.317146999999995 5.64920802746569 2.8292867500000085 -1 0 0
20 1 1.414643375000001 7.063164564411909 4.243930124999995 0 0 0
25 1 2.24954705606931e-15 8.474470351626405 3.2363450905592936e-15 0 0 0
27 1 1.0511240542479405e-15 8.474470351626392 2.8292867499999903 0 0 0
89 1 2.829286750000001 5.649208027465685 11.317146999999991 0 0 -1
90 1 4.2439301249999986 7.063164564411924 1.4146433749999994 0 0 0
91 1 2.8292867499999907 5.649208027465691 2.8292867500000036 0 0 0
92 1 4.243930125000007 7.063164564411915 4.2439301249999986 0 0 0
97 1 2.829286750000005 8.474470351626398 5.396264809473834e-15 0 0 0
99 1 2.8292867499999956 8.474470351626392 2.829286749999994 0 0 0
161 1 5.6585735 5.649208027465681 11.31714699999999 0 0 -1
162 1 7.073216874999997 7.06316456441193 1.4146433750000038 0 0 0
163 1 5.658573500000002 5.6492080274656855 2.829286750000011 0 0 0
164 1 7.073216874999987 7.063164564411918 4.2439301249999986 0 0 0
169 1 5.658573500000004 8.474470351626394 3.947191693236145e-15 0 0 0
171 1 5.658573500000003 8.474470351626383 2.8292867499999987 0 0 0
233 1 8.487860250000002 5.649208027465683 11.317146999999993 0 0 -1
234 1 9.902503624999992 7.063164564411922 1.4146433750000122 0 0 0
235 1 8.487860250000011 5.649208027465689 2.8292867500000005 0 0 0
236 1 9.902503625000005 7.063164564411903 4.243930124999988 0 0 0
241 1 8.487860249999994 8.474470351626401 1.1456311675091588e-14 0 0 0
243 1 8.487860249999999 8.474470351626385 2.8292867499999863 0 0 0
26 1 1.4146433749999963 9.878947838073838 1.414643375000001 0 0 0
28 1 1.4146433749999967 9.878947838073847 4.243930125 0 0 0
33 1 11.317146999999997 11.30226756715907 2.0319250751517295e-16 -1 0 0
34 1 1.4146433749999985 12.686504653764318 1.4146433749999956 0 0 0
35 1 11.317146999999999 11.302267567159074 2.8292867500000005 -1 0 0
36 1 1.4146433750000045 12.68650465376432 4.243930125000001 0 0 0
98 1 4.243930124999995 9.878947838073843 1.4146433749999985 0 0 0
100 1 4.243930124999999 9.878947838073847 4.243930124999998 0 0 0
105 1 2.8292867500000014 11.302267567159074 11.317146999999999 0 0 -1
106 1 4.243930124999997 12.686504653764324 1.4146433749999985 0 0 0
107 1 2.8292867499999987 11.302267567159076 2.829286750000001 0 0 0
108 1 4.243930125000006 12.686504653764317 4.243930124999993 0 0 0
170 1 7.073216875 9.878947838073842 1.4146433749999954 0 0 0
172 1 7.0732168749999955 9.878947838073843 4.243930125000007 0 0 0
177 1 5.658573500000003 11.302267567159076 11.317146999999999 0 0 -1
178 1 7.0732168750000035 12.686504653764322 1.4146433750000025 0 0 0
179 1 5.658573499999999 11.302267567159083 2.82928675 0 0 0
180 1 7.073216875000005 12.68650465376432 4.2439301249999986 0 0 0
242 1 9.902503625000003 9.878947838073838 1.4146433749999991 0 0 0
244 1 9.902503625000007 9.878947838073849 4.243930124999998 0 0 0
249 1 8.487860249999997 11.302267567159074 1.6200474633593717e-15 0 0 0
250 1 9.90250362499999 12.68650465376432 1.4146433750000018 0 0 0
251 1 8.487860250000002 11.302267567159076 2.829286749999999 0 0 0
252 1 9.902503624999998 12.68650465376432 4.243930124999995 0 0 0
41 1 11.317146999999995 18.690093556017516 4.0810223154140066e-15 -1 0 0
42 1 1.4146433749999974 20.07450919314043 1.414643374999997 0 0 0
43 1 0 18.69009355601751 2.829286750000001 0 0 0
44 1 1.4146433749999954 20.074509193140436 4.2439301249999986 0 0 0
113 1 2.829286750000002 18.69009355601751 11.317146999999997 0 0 -1
114 1 4.243930125000002 20.074509193140432 1.414643375000001 0 0 0
115 1 2.829286749999995 18.69009355601751 2.829286750000001 0 0 0
116 1 4.243930125000001 20.074509193140443 4.2439301249999986 0 0 0
185 1 5.658573500000015 18.690093556017512 5.6292678771015275e-15 0 0 0
186 1 7.073216875000003 20.074509193140436 1.4146433749999985 0 0 0
187 1 5.658573499999998 18.690093556017505 2.8292867500000094 0 0 0
188 1 7.073216874999998 20.074509193140432 4.243930125 0 0 0
257 1 8.487860250000006 18.690093556017516 1.9240733056891693e-15 0 0 0
258 1 9.902503625000003 20.074509193140436 1.4146433749999918 0 0 0
259 1 8.48786025 18.690093556017498 2.829286749999998 0 0 0
260 1 9.902503625000008 20.074509193140436 4.243930125000006 0 0 0
49 1 11.317146999999991 21.49791645677088 11.317146999999997 -1 0 -1
50 1 1.4146433750000074 22.90292957841028 1.4146433750000031 0 0 0
51 1 1.6054784561460718e-15 21.497916456770895 2.829286750000006 0 0 0
52 1 1.4146433750000011 22.902929578410262 4.243930125000001 0 0 0
57 1 1.7394725989769762e-15 24.313504948024157 7.583842751438395e-15 0 0 0
59 1 6.839956001229426e-15 24.313504948024157 2.829286749999993 0 0 0
121 1 2.829286750000005 21.4979164567709 11.317146999999995 0 0 -1
122 1 4.24393012499999 22.902929578410266 1.4146433750000031 0 0 0
123 1 2.829286750000006 21.497916456770902 2.829286750000003 0 0 0
124 1 4.243930124999996 22.902929578410248 4.243930125000001 0 0 0
129 1 2.8292867499999947 24.313504948024146 3.62182709853265e-15 0 0 0
131 1 2.829286749999993 24.313504948024143 2.8292867499999894 0 0 0
193 1 5.658573500000002 21.497916456770895 11.317146999999997 0 0 -1
194 1 7.073216875000005 22.90292957841027 1.414643374999989 0 0 0
195 1 5.658573499999992 21.49791645677089 2.829286750000009 0 0 0
196 1 7.0732168750000035 22.902929578410262 4.243930125000007 0 0 0
201 1 5.658573500000009 24.313504948024157 1.5093313714377465e-15 0 0 0
203 1 5.658573499999999 24.313504948024157 2.8292867499999974 0 0 0
265 1 8.487860250000002 21.497916456770902 11.317146999999995 0 0 -1
266 1 9.902503624999994 22.902929578410266 1.4146433749999945 0 0 0
267 1 8.487860250000004 21.497916456770902 2.829286750000004 0 0 0
268 1 9.902503625 22.90292957841025 4.243930125000005 0 0 0
273 1 8.487860249999992 24.313504948024143 11.317146999999997 0 0 -1
275 1 8.487860249999997 24.313504948024153 2.829286749999996 0 0 0
58 1 1.4146433749999956 25.718985220831524 1.414643374999999 0 0 0
60 1 1.414643374999995 25.718985220831534 4.243930125 0 0 0
65 1 0 27.13429539404 0 0 0 0
66 1 1.414643375 28.548937423841 1.414643375 0 0 0
67 1 0 27.13429539404 2.82928675 0 0 0
68 1 1.414643375 28.548937423841 4.243930125 0 0 0
130 1 4.243930125000003 25.718985220831538 1.4146433750000023 0 0 0
132 1 4.243930125000002 25.718985220831538 4.243930124999997 0 0 0
137 1 2.82928675 27.13429539404 0 0 0 0
138 1 4.243930125 28.548937423841 1.414643375 0 0 0
139 1 2.82928675 27.13429539404 2.82928675 0 0 0
140 1 4.243930125 28.548937423841 4.243930125 0 0 0
202 1 7.073216874999996 25.718985220831534 1.4146433749999978 0 0 0
204 1 7.073216874999999 25.71898522083153 4.243930124999997 0 0 0
209 1 5.6585735 27.13429539404 0 0 0 0
210 1 7.073216875 28.548937423841 1.414643375 0 0 0
211 1 5.6585735 27.13429539404 2.82928675 0 0 0
212 1 7.073216875 28.548937423841 4.243930125 0 0 0
274 1 9.902503625000005 25.718985220831534 1.4146433749999991 0 0 0
276 1 9.902503624999998 25.718985220831538 4.243930125000001 0 0 0
281 1 8.48786025 27.13429539404 0 0 0 0
282 1 9.902503625 28.548937423841 1.414643375 0 0 0
283 1 8.48786025 27.13429539404 2.82928675 0 0 0
284 1 9.902503625 28.548937423841 4.243930125 0 0 0
5 1 0 0 5.6585735 0 0 0
6 1 1.414643375 1.414643557616 7.073216875 0 0 0
7 1 0 0 8.48786025 0 0 0
8 1 1.414643375 1.414643557616 9.902503625 0 0 0
13 1 0 2.82928660596 5.6585735 0 0 0
14 1 1.414643374999997 4.236975446530949 7.073216875 0 0 0
15 1 0 2.82928660596 8.48786025 0 0 0
16 1 1.4146433750000016 4.236975446530959 9.902503625000003 0 0 0
77 1 2.82928675 0 5.6585735 0 0 0
78 1 4.243930125 1.414643557616 7.073216875 0 0 0
79 1 2.82928675 0 8.48786025 0 0 0
80 1 4.243930125 1.414643557616 9.902503625 0 0 0
85 1 2.82928675 2.82928660596 5.6585735 0 0 0
86 1 4.2439301249999986 4.236975446530945 7.073216874999997 0 0 0
87 1 2.82928675 2.82928660596 8.48786025 0 0 0
88 1 4.243930125000004 4.236975446530956 9.902503625000003 0 0 0
149 1 5.6585735 0 5.6585735 0 0 0
150 1 7.073216875 1.414643557616 7.073216875 0 0 0
151 1 5.6585735 0 8.48786025 0 0 0
152 1 7.073216875 1.414643557616 9.902503625 0 0 0
157 1 5.6585735 2.82928660596 5.6585735 0 0 0
158 1 7.073216875000003 4.236975446530937 7.073216874999994 0 0 0
159 1 5.6585735 2.82928660596 8.48786025 0 0 0
160 1 7.073216875 4.236975446530952 9.902503625000003 0 0 0
221 1 8.48786025 0 5.6585735 0 0 0
222 1 9.902503625 1.414643557616 7.073216875 0 0 0
223 1 8.48786025 0 8.48786025 0 0 0
224 1 9.902503625 1.414643557616 9.902503625 0 0 0
229 1 8.48786025 2.82928660596 5.6585735 0 0 0
230 1 9.902503624999998 4.236975446530949 7.073216875000001 0 0 0
231 1 8.48786025 2.82928660596 8.48786025 0 0 0
232 1 9.902503625 4.236975446530957 9.902503625000001 0 0 0
21 1 9.240911065024868e-16 5.649208027465685 5.6585734999999975 0 0 0
22 1 1.4146433749999978 7.063164564411922 7.073216875000008 0 0 0
23 1 3.654193696568914e-15 5.649208027465691 8.487860250000006 0 0 0
24 1 1.4146433750000025 7.063164564411903 9.902503624999996 0 0 0
29 1 6.3982999646911206e-15 8.474470351626403 5.65857350000001 0 0 0
31 1 2.558892333866721e-15 8.474470351626398 8.487860249999999 0 0 0
93 1 2.8292867499999987 5.649208027465684 5.658573499999997 0 0 0
94 1 4.243930125000003 7.063164564411926 7.073216875000007 0 0 0
95 1 2.8292867499999987 5.649208027465691 8.487860250000006 0 0 0
96 1 4.243930125000001 7.0631645644119105 9.902503624999996 0 0 0
101 1 2.8292867499999996 8.474470351626396 5.658573500000009 0 0 0
103 1 2.8292867500000063 8.4744703516264 8.487860249999995 0 0 0
165 1 5.6585734999999975 5.6492080274656855 5.658573499999985 0 0 0
166 1 7.0732168750000035 7.06316456441193 7.073216875000003 0 0 0
167 1 5.658573499999998 5.649208027465688 8.487860250000013 0 0 0
168 1 7.0732168749999955 7.063164564411915 9.902503624999998 0 0 0
173 1 5.658573500000009 8.474470351626394 5.6585735 0 0 0
175 1 5.658573499999999 8.474470351626389 8.487860249999997 0 0 0
237 1 8.487860250000006 5.649208027465679 5.6585735 0 0 0
238 1 9.902503625 7.063164564411919 7.073216875000011 0 0 0
239 1 8.487860250000008 5.64920802746569 8.487860250000006 0 0 0
240 1 9.902503624999998 7.0631645644119105 9.902503624999994 0 0 0
245 1 8.487860249999988 8.4744703516264 5.658573500000013 0 0 0
247 1 8.48786025 8.474470351626389 8.48786024999999 0 0 0
30 1 1.4146433749999974 9.878947838073847 7.073216874999998 0 0 0
32 1 1.4146433749999985 9.878947838073849 9.902503625 0 0 0
37 1 11.317146999999999 11.302267567159076 5.658573499999997 -1 0 0
38 1 1.4146433750000031 12.68650465376432 7.073216874999993 0 0 0
39 1 6.294435162907821e-15 11.30226756715908 8.487860250000002 0 0 0
40 1 1.4146433750000083 12.686504653764318 9.902503625000014 0 0 0
102 1 4.243930124999993 9.878947838073845 7.073216875000006 0 0 0
104 1 4.243930124999999 9.87894783807385 9.902503625 0 0 0
109 1 2.829286750000002 11.302267567159076 5.658573500000002 0 0 0
110 1 4.243930125000006 12.686504653764317 7.073216875000001 0 0 0
111 1 2.829286750000002 11.302267567159078 8.487860249999999 0 0 0
112 1 4.243930125000002 12.686504653764313 9.902503625000001 0 0 0
174 1 7.073216875000007 9.878947838073836 7.07321687499999 0 0 0
176 1 7.073216874999999 9.878947838073847 9.902503625000007 0 0 0
181 1 5.658573500000002 11.302267567159076 5.658573499999995 0 0 0
182 1 7.073216875000004 12.686504653764326 7.073216874999998 0 0 0
183 1 5.658573499999998 11.302267567159078 8.487860250000002 0 0 0
184 1 7.073216875000005 12.686504653764311 9.902503625000005 0 0 0
246 1 9.902503625 9.878947838073845 7.073216874999996 0 0 0
248 1 9.902503625000007 9.87894783807385 9.902503625000007 0 0 0
253 1 8.48786025 11.302267567159074 5.658573500000001 0 0 0
254 1 9.902503624999996 12.686504653764326 7.073216874999999 0 0 0
255 1 8.487860250000002 11.30226756715908 8.487860250000002 0 0 0
256 1 9.902503625000001 12.686504653764318 9.902503625000008 0 0 0
45 1 11.317146999999999 18.690093556017512 5.658573500000003 -1 0 0
46 1 1.4146433749999938 20.074509193140425 7.073216875000001 0 0 0
47 1 11.317146999999995 18.69009355601751 8.487860249999999 -1 0 0
48 1 1.414643374999998 20.07450919314043 9.902503625000003 0 0 0
117 1 2.8292867500000054 18.690093556017505 5.658573500000006 0 0 0
118 1 4.2439301250000065 20.074509193140436 7.073216875000005 0 0 0
119 1 2.8292867500000085 18.69009355601751 8.48786024999999 0 0 0
120 1 4.243930125000002 20.07450919314044 9.902503624999998 0 0 0
189 1 5.658573499999997 18.690093556017512 5.6585735 0 0 0
190 1 7.073216874999998 20.074509193140432 7.073216874999999 0 0 0
191 1 5.658573500000009 18.690093556017512 8.487860249999995 0 0 0
192 1 7.073216875000001 20.07450919314044 9.902503625000001 0 0 0
261 1 8.487860249999995 18.690093556017505 5.658573500000005 0 0 0
262 1 9.902503625000001 20.074509193140436 7.073216875000002 0 0 0
263 1 8.487860249999988 18.69009355601751 8.487860249999992 0 0 0
264 1 9.902503625000003 20.074509193140443 9.902503624999994 0 0 0
53 1 11.317146999999991 21.497916456770888 5.658573499999991 -1 0 0
54 1 1.4146433750000007 22.902929578410287 7.073216875000004 0 0 0
55 1 11.317146999999995 21.497916456770884 8.487860250000004 -1 0 0
56 1 1.414643375000014 22.90292957841027 9.902503624999996 0 0 0
61 1 6.502359411877814e-15 24.313504948024153 5.658573500000013 0 0 0
63 1 6.4540136708254596e-15 24.313504948024157 8.487860249999992 0 0 0
125 1 2.829286750000009 21.4979164567709 5.658573499999993 0 0 0
126 1 4.243930124999993 22.902929578410266 7.073216875000006 0 0 0
127 1 2.8292867500000107 21.4979164567709 8.487860250000013 0 0 0
128 1 4.2439301249999914 22.902929578410255 9.902503624999992 0 0 0
133 1 2.8292867499999947 24.31350494802415 5.658573500000008 0 0 0
135 1 2.8292867499999956 24.313504948024143 8.487860249999999 0 0 0
197 1 5.658573499999997 21.4979164567709 5.658573499999987 0 0 0
198 1 7.073216875000004 22.902929578410273 7.073216874999997 0 0 0
199 1 5.658573499999991 21.49791645677089 8.487860250000006 0 0 0
200 1 7.073216875000008 22.90292957841027 9.902503625000012 0 0 0
205 1 5.6585735000000055 24.313504948024153 5.658573500000002 0 0 0
207 1 5.658573500000005 24.313504948024157 8.487860250000002 0 0 0
269 1 8.487860250000006 21.497916456770895 5.658573499999995 0 0 0
270 1 9.902503625 22.902929578410266 7.073216874999999 0 0 0
271 1 8.487860250000008 21.49791645677089 8.487860250000004 0 0 0
272 1 9.902503624999989 22.90292957841026 9.902503625 0 0 0
277 1 8.487860249999997 24.31350494802415 5.658573500000004 0 0 0
279 1 8.487860249999999 24.313504948024153 8.487860249999999 0 0 0
62 1 1.4146433749999925 25.718985220831524 7.073216875000001 0 0 0
64 1 1.4146433749999936 25.718985220831527 9.902503625000003 0 0 0
69 1 0 27.13429539404 5.6585735 0 0 0
70 1 1.414643375 28.548937423841 7.073216875 0 0 0
71 1 0 27.13429539404 8.48786025 0 0 0
72 1 1.414643375 28.548937423841 9.902503625 0 0 0
134 1 4.243930125000002 25.718985220831534 7.073216875000001 0 0 0
136 1 4.243930125000005 25.718985220831538 9.902503624999998 0 0 0
141 1 2.82928675 27.13429539404 5.6585735 0 0 0
142 1 4.243930125 28.548937423841 7.073216875 0 0 0
143 1 2.82928675 27.13429539404 8.48786025 0 0 0
144 1 4.243930125 28.548937423841 9.902503625 0 0 0
206 1 7.073216875000001 25.71898522083153 7.073216874999998 0 0 0
208 1 7.073216875000002 25.71898522083153 9.902503625000003 0 0 0
213 1 5.6585735 27.13429539404 5.6585735 0 0 0
214 1 7.073216875 28.548937423841 7.073216875 0 0 0
215 1 5.6585735 27.13429539404 8.48786025 0 0 0
216 1 7.073216875 28.548937423841 9.902503625 0 0 0
278 1 9.902503625000005 25.718985220831534 7.073216875000001 0 0 0
280 1 9.902503625 25.718985220831534 9.902503625000001 0 0 0
285 1 8.48786025 27.13429539404 5.6585735 0 0 0
286 1 9.902503625 28.548937423841 7.073216875 0 0 0
287 1 8.48786025 27.13429539404 8.48786025 0 0 0
288 1 9.902503625 28.548937423841 9.902503625 0 0 0

Velocities

1 0 0 0
2 0 0 0
3 0 0 0
4 0 0 0
9 0 0 0
10 0 0 0
11 0 0 0
12 0 0 0
73 0 0 0
74 0 0 0
75 0 0 0
76 0 0 0
81 0 0 0
82 0 0 0
83 0 0 0
84 0 0 0
145 0 0 0
146 0 0 0
147 0 0 0
148 0 0 0
153 0 0 0
154 0 0 0
155 0 0 0
156 0 0 0
217 0 0 0
218 0 0 0
219 0 0 0
220 0 0 0
225 0 0 0
226 0 0 0
227 0 0 0
228 0 0 0
17 0 0 0
18 0 0 0
19 0 0 0
20 0 0 0
25 0 0 0
27 0 0 0
89 0 0 0
90 0 0 0
91 0 0 0
92 0 0 0
97 0 0 0
99 0 0 0
161 0 0 0
162 0 0 0
163 0 0 0
164 0 0 0
169 0 0 0
171 0 0 0
233 0 0 0
234 0 0 0
235 0 0 0
236 0 0 0
241 0 0 0
243 0 0 0
26 0 0 0
28 0 0 0
33 0 0 0
34 0 0 0
35 0 0 0
36 0 0 0
98 0 0 0
100 0 0 0
105 0 0 0
106 0 0 0
107 0 0 0
108 0 0 0
170 0 0 0
172 0 0 0
177 0 0 0
178 0 0 0
179 0 0 0
180 0 0 0
242 0 0 0
244 0 0 0
249 0 0 0
250 0 0 0
251 0 0 0
252 0 0 0
41 0 0 0
42 0 0 0
43 0 0 0
44 0 0 0
113 0 0 0
114 0 0 0
115 0 0 0
116 0 0 0
185 0 0 0
186 0 0 0
187 0 0 0
188 0 0 0
257 0 0 0
258 0 0 0
259 0 0 0
260 0 0 0
49 0 0 0
50 0 0 0
51 0 0 0
52 0 0 0
57 0 0 0
59 0 0 0
121 0 0 0
122 0 0 0
123 0 0 0
124 0 0 0
129 0 0 0
131 0 0 0
193 0 0 0
194 0 0 0
195 0 0 0
196 0 0 0
201 0 0 0
203 0 0 0
265 0 0 0
266 0 0 0
267 0 0 0
268 0 0 0
273 0 0 0
275 0 0 0
58 0 0 0
60 0 0 0
65 0 0 0
66 0 0 0
67 0 0 0
68 0 0 0
130 0 0 0
132 0 0 0
137 0 0 0
138 0 0 0
139 0 0 0
140 0 0 0
202 0 0 0
204 0 0 0
209 0 0 0
210 0 0 0
211 0 0 0
212 0 0 0
274 0 0 0
276 0 0 0
281 0 0 0
282 0 0 0
283 0 0 0
284 0 0 0
5 0 0 0
6 0 0 0
7 0 0 0
8 0 0 0
13 0 0 0
14 0 0 0
15 0 0 0
16 0 0 0
77 0 0 0
78 0 0 0
79 0 0 0
80 0 0 0
85 0 0 0
86 0 0 0
87 0 0 0
88 0 0 0
149 0 0 0
150 0 0 0
151 0 0 0
152 0 0 0
157 0 0 0
158 0 0 0
159 0 0 0
160 0 0 0
221 0 0 0
222 0 0 0
223 0 0 0
224 0 0 0
229 0 0 0
230 0 0 0
231 0 0 0
232 0 0 0
21 0 0 0
22 0 0 0
23 0 0 0
24 0 0 0
29 0 0 0
31 0 0 0
93 0 0 0
94 0 0 0
95 0 0 0
96 0 0 0
101 0 0 0
103 0 0 0
165 0 0 0
166 0 0 0
167 0 0 0
168 0 0 0
173 0 0 0
175 0 0 0
237 0 0 0
238 0 0 0
239 0 0 0
240 0 0 0
245 0 0 0
247 0 0 0
30 0 0 0
32 0 0 0
37 0 0 0
38 0 0 0
39 0 0 0
40 0 0 0
102 0 0 0
104 0 0 0
109 0 0 0
110 0 0 0
111 0 0 0
112 0 0 0
174 0 0 0
176 0 0 0
181 0 0 0
182 0 0 0
183 0 0 0
184 0 0 0
246 0 0 0
248 0 0 0
253 0 0 0
254 0 0 0
255 0 0 0
256 0 0 0
45 0 0 0
46 0 0 0
47 0 0 0
48 0 0 0
117 0 0 0
118 0 0 0
119 0 0 0
120 0 0 0
189 0 0 0
190 0 0 0
191 0 0 0
192 0 0 0
261 0 0 0
262 0 0 0
263 0 0 0
264 0 0 0
53 0 0 0
54 0 0 0
55 0 0 0
56 0 0 0
61 0 0 0
63 0 0 0
125 0 0 0
126 0 0 0
127 0 0 0
128 0 0 0
133 0 0 0
135 0 0 0
197 0 0 0
198 0 0 0
199 0 0 0
200 0 0 0
205 0 0 0
207 0 0 0
269 0 0 0
270 0 0 0
271 0 0 0
272 0 0 0
277 0 0 0
279 0 0 0
62 0 0 0
64 0 0 0
69 0 0 0
70 0 0 0
71 0 0 0
72 0 0 0
134 0 0 0
136 0 0 0
141 0 0 0
142 0 0 0
143 0 0 0
144 0 0 0
206 0 0 0
208 0 0 0
213 0 0 0
214 0 0 0
215 0 0 0
216 0 0 0
278 0 0 0
280 0 0 0
285 0 0 0
286 0 0 0
287 0 0 0
288 0 0 0
