LAMMPS data file via write_data, version 29 Aug 2024, timestep = 26, units = metal

240 atoms
1 atom types

0 13.98284573 xlo xhi
0 26.71841258 ylo yhi
0 8.07299975 zlo zhi

Masses

1 55.8

Atoms # atomic

14 1 1.104123392353 0.978309288037 6.019465798333 0 0 0
20 1 2.26936048991 1.511660948117 4.001215860833 0 0 0
119 1 2.2693554327336045 4.1758992869447145 8.037715735735883 0 0 0
162 1 4.599834824853 3.240284549262 8.037715735833 0 0 0
164 1 3.434597727296 2.374575787602 1.982965923333 0 0 0
165 1 1.104123392353 3.240284549262 1.982965923333 0 0 0
171 1 4.599834824853 0.978309288037 4.001215860833 0 0 0
207 1 4.599834824853 3.240284549262 4.001215860833 0 0 0
209 1 3.434597727296 2.374575787602 6.019465798333 0 0 0
210 1 1.104123392353 3.240284549262 6.019465798333 0 0 0
211 1 2.269355432347514 4.175899286994262 4.001215860978674 0 0 0
227 1 4.599834824853 0.978309288037 8.037715735833 0 0 0
230 1 1.104123392353 0.978309288037 1.982965923333 0 0 0
231 1 2.26936048991 1.511660948117 8.037715735833 0 0 0
16 1 8.095546257353 3.240284549262 6.019465798333 0 0 0
21 1 9.260778297794504 4.1758992869898455 4.001215860913717 0 0 0
25 1 6.930309159796 2.374575787602 4.001215860833 0 0 0
124 1 8.095546257353 3.240284549262 1.982965923333 0 0 0
125 1 9.260778297423906 4.175899286937854 8.037715736037281 0 0 0
159 1 8.095546257353 0.978309288037 6.019465798333 0 0 0
160 1 9.26078335491 1.511660948117 4.001215860833 0 0 0
163 1 5.765066864928846 4.175899287033055 1.9829659233067125 0 0 0
168 1 8.095546257353 0.978309288037 1.982965923333 0 0 0
169 1 9.26078335491 1.511660948117 8.037715735833 0 0 0
172 1 5.76507192241 1.511660948117 6.019465798333 0 0 0
206 1 6.930309159796 2.374575787602 8.037715735833 0 0 0
208 1 5.765066865253732 4.175899286942029 6.019465798123726 0 0 0
228 1 5.76507192241 1.511660948117 1.982965923333 0 0 0
1 1 11.591257689853 3.240284549262 4.001215860833 0 0 0
7 1 12.7564897299074 4.175899286902643 6.019465798440748 0 0 0
11 1 10.426020592296 2.374575787602 6.019465798333 0 0 0
33 1 11.591257689853 0.978309288037 4.001215860833 0 0 0
36 1 12.75649478741 1.511660948117 6.019465798333 0 0 0
120 1 13.921732024796 2.374575787602 8.037715735833 0 0 0
121 1 11.591257689853 3.240284549262 8.037715735833 0 0 0
122 1 12.756489730209822 4.175899286988528 1.982965923188759 0 0 0
123 1 10.426020592296 2.374575787602 1.982965923333 0 0 0
166 1 12.75649478741 1.511660948117 1.982965923333 0 0 0
213 1 13.921732024796 2.374575787602 4.001215860833 0 0 0
233 1 11.591257689853 0.978309288037 8.037715735833 0 0 0
12 1 3.4346085218023807 5.069479753916088 1.9829659231125196 0 0 0
19 1 1.104108498748138 5.925976872611344 1.9829659235757227 0 0 0
28 1 2.269376730786047 6.803316169140649 8.037715735534759 0 0 0
31 1 4.599819931532557 5.925976872583481 8.037715736129062 0 0 0
72 1 4.599819932348887 5.925976872607018 4.001215860701139 0 0 0
74 1 3.434608521039864 5.069479754019788 6.019465798455028 0 0 0
75 1 1.1041084998507615 5.925976872566962 6.019465798035019 0 0 0
76 1 2.269376729841266 6.803316169090763 4.0012158611601585 0 0 0
106 1 4.599846576349831 8.579576929897991 4.001215860657096 0 0 0
108 1 3.434583124132111 7.677700432744068 6.019465798592151 0 0 0
109 1 1.104135143691028 8.579576929931669 6.019465797845178 0 0 0
110 1 2.269352150989395 9.454407301246558 4.001215861142641 0 0 0
201 1 4.599846575513604 8.579576929920112 8.03771573599411 0 0 0
203 1 3.4345831248706244 7.677700432858065 1.9829659230636778 0 0 0
204 1 1.1041351430342834 8.5795769298879 1.982965923293023 0 0 0
205 1 2.269352151595699 9.454407301235552 8.037715735898542 0 0 0
5 1 5.765088162486345 6.803316169064919 1.982965923502103 0 0 0
69 1 8.095531364647307 5.925976872597826 1.9829659227217205 0 0 0
70 1 9.260799594872825 6.803316169158839 8.03771573639931 0 0 0
71 1 6.930319954159503 5.069479754007663 8.037715735964646 0 0 0
73 1 5.765088163144633 6.803316169161471 6.019465797943814 0 0 0
81 1 8.095531364127568 5.925976872560587 6.0194657983059185 0 0 0
107 1 5.765063583953454 9.45440730120424 6.019465798159616 0 0 0
130 1 8.095558008878914 8.579576929915923 1.982965922977867 0 0 0
131 1 9.260775015913476 9.454407301197193 8.037715736088755 0 0 0
132 1 6.930294557403765 7.677700432753973 8.037715735749607 0 0 0
188 1 8.095558008162962 8.579576929951005 6.019465798484499 0 0 0
189 1 9.260775016526248 9.45440730121305 4.001215860741433 0 0 0
190 1 6.930294556343786 7.677700432816595 4.001215861144412 0 0 0
199 1 9.260799596077547 6.803316169103916 4.001215861001293 0 0 0
200 1 6.930319953511191 5.069479753950785 4.001215861164657 0 0 0
202 1 5.765063583453976 9.454407301232878 1.9829659235369739 0 0 0
32 1 13.921742818588163 5.069479754030618 8.037715736113347 0 0 0
35 1 11.591242797317355 5.925976872563347 8.037715735926673 0 0 0
38 1 12.756511028542059 6.803316169091449 1.9829659226180487 0 0 0
68 1 10.426031386179654 5.069479753956471 1.9829659233099468 0 0 0
77 1 13.921742819409348 5.069479753970238 4.0012158606132955 0 0 0
78 1 11.59124279617408 5.92597687258348 4.00121586144919 0 0 0
79 1 12.75651102740373 6.803316169177319 6.01946579830736 0 0 0
80 1 10.42603138664565 5.069479754067462 6.019465797799759 0 0 0
111 1 13.921717422420167 7.677700432808931 4.001215860875568 0 0 0
112 1 11.591269440549151 8.579576929924809 4.001215861354977 0 0 0
126 1 13.92171742146135 7.677700432741352 8.03771573645899 0 0 0
127 1 11.59126944135557 8.579576929942833 8.037715735912196 0 0 0
128 1 12.756486449062102 9.45440730123618 1.9829659229395304 0 0 0
129 1 10.426005988847713 7.6777004328212355 1.982965923294247 0 0 0
186 1 12.756486448555993 9.454407301217815 6.01946579826082 0 0 0
187 1 10.426005989779757 7.677700432696721 6.019465797663722 0 0 0
51 1 4.599833259111283 11.226505048564512 4.001215860833442 0 0 0
53 1 3.4346020879953043 10.332966173282037 6.019465798336508 0 0 0
54 1 1.1041218266046176 11.226505048574015 6.019465798197825 0 0 0
64 1 3.434597583345031 13.264394911636112 6.019465798330661 0 0 0
152 1 3.4346020882813515 10.332966173267032 1.9829659231184062 0 0 0
153 1 1.104121826463754 11.22650504857201 1.9829659233066448 0 0 0
154 1 2.2693607712877153 12.015095573328615 8.037715735854242 0 0 0
177 1 2.2693607712074737 12.015095573328955 4.001215860889116 0 0 0
191 1 4.59983325891389 11.226505048566212 8.037715735925051 0 0 0
195 1 3.4345975833436926 13.264394911638561 1.9829659233318109 0 0 0
3 1 6.930313520466793 10.332966173288899 4.001215860912053 0 0 0
40 1 6.930309015844263 13.26439491163447 8.037715735834245 0 0 0
48 1 8.095544691620926 11.226505048559417 1.9829659232885104 0 0 0
49 1 9.260783636191748 12.015095573337641 8.037715735841703 0 0 0
50 1 6.93031352084532 10.332966173296896 8.03771573572963 0 0 0
52 1 5.76507220377705 12.015095573341645 6.019465798295495 0 0 0
98 1 6.9303090158469605 13.264394911635863 4.0012158608334145 0 0 0
184 1 8.095544691451773 11.22650504856538 6.019465798397279 0 0 0
185 1 9.260783636265124 12.015095573335792 4.001215860806768 0 0 0
192 1 5.765072203708809 12.01509557333887 1.9829659233401815 0 0 0
34 1 10.426020448348137 13.264394911637954 1.982965923335263 0 0 0
66 1 13.921731880844359 13.264394911639533 4.001215860832362 0 0 0
96 1 10.426020448345009 13.264394911635328 6.019465798336803 0 0 0
155 1 13.921736385408408 10.332966173277393 8.03771573605985 0 0 0
156 1 11.591256124149014 11.226505048572 8.037715735821932 0 0 0
157 1 12.756495068760579 12.015095573326692 1.9829659232943628 0 0 0
158 1 10.426024952939699 10.332966173281003 1.9829659233824033 0 0 0
179 1 13.921736385763545 10.332966173267181 4.001215860897315 0 0 0
181 1 11.591256123966335 11.22650504856841 4.0012158609132245 0 0 0
182 1 12.756495068705545 12.015095573324786 6.019465798339031 0 0 0
183 1 10.426024953266774 10.33296617330064 6.019465798172625 0 0 0
197 1 13.921731880846236 13.264394911638062 8.03771573583079 0 0 0
63 1 2.269360879303045 14.517218629706305 4.0012158608178945 0 0 0
65 1 4.599834511477798 15.30140510659769 4.001215860823375 0 0 0
67 1 1.1041230789976368 15.30140510659829 6.019465798353382 0 0 0
89 1 2.269359966848357 17.076792939750273 8.037715735781678 0 0 0
90 1 3.4345980041826976 16.196495964197712 1.9829659233599068 0 0 0
174 1 2.2693599668794624 17.076792939756015 4.001215860820166 0 0 0
175 1 3.4345980041566273 16.196495964201674 6.019465798344637 0 0 0
194 1 2.2693608792758164 14.51721862970817 8.037715735825415 0 0 0
196 1 4.5998345115028325 15.301405106598402 8.037715735823706 0 0 0
198 1 1.1041230789932461 15.301405106597093 1.9829659233386572 0 0 0
24 1 9.260783744305138 14.517218629706525 8.037715735829966 0 0 0
41 1 8.095545943986311 15.301405106598883 1.9829659233358115 0 0 0
43 1 9.260782831821972 17.076792939756018 4.001215860849829 0 0 0
46 1 6.930309436697205 16.19649596419814 4.0012158608453285 0 0 0
62 1 5.765072311786926 14.517218629703768 6.019465798343854 0 0 0
88 1 5.765071399337127 17.076792939754448 1.9829659233100307 0 0 0
95 1 9.260783744280626 14.51721862970597 4.001215860836614 0 0 0
99 1 8.095545943985998 15.30140510659985 6.0194657983229405 0 0 0
101 1 9.26078283185203 17.07679293975129 8.03771573586551 0 0 0
104 1 6.93030943666989 16.196495964200853 8.037715735834439 0 0 0
173 1 5.765071399382623 17.07679293974698 6.01946579833583 0 0 0
193 1 5.765072311801168 14.517218629702326 1.9829659233290766 0 0 0
9 1 12.756495176782993 14.51721862970764 1.9829659233459158 0 0 0
39 1 11.591257376480142 15.301405106598903 8.037715735833059 0 0 0
42 1 12.756494264318517 17.076792939752437 6.019465798348634 0 0 0
44 1 10.426020869197048 16.196495964196323 6.019465798326893 0 0 0
92 1 13.921732301685356 16.196495964196533 8.037715735824046 0 0 0
94 1 12.756495176793273 14.517218629711934 6.019465798330799 0 0 0
97 1 11.591257376501504 15.301405106598269 4.001215860837268 0 0 0
100 1 12.756494264365575 17.07679293976231 1.9829659233583714 0 0 0
102 1 10.426020869177249 16.19649596419277 1.9829659233144008 0 0 0
178 1 13.92173230166302 16.196495964193936 4.001215860810516 0 0 0
91 1 4.599835653040808 17.951580351996906 8.037715735869314 0 0 0
93 1 1.1041242205022264 17.951580351985395 1.9829659233687182 0 0 0
114 1 2.269361898782017 19.719269986084022 8.03771573582689 0 0 0
115 1 3.4345965651321744 18.853828729359467 1.9829659233283157 0 0 0
116 1 4.5998334218923524 20.609230392887515 8.037715735910409 0 0 0
118 1 1.1041219893643115 20.609230392897775 1.9829659233177876 0 0 0
134 1 2.2693618987921655 19.719269986065246 4.001215860858973 0 0 0
135 1 3.434596565023111 18.853828729334417 6.019465798315499 0 0 0
136 1 4.599833421899847 20.609230392893522 4.001215860851966 0 0 0
138 1 1.1041219893963095 20.609230392889486 6.019465798339574 0 0 0
176 1 4.599835652997537 17.951580351992277 4.00121586081876 0 0 0
180 1 1.1041242205789215 17.951580351991076 6.01946579838205 0 0 0
222 1 3.4345988768273683 21.463726685873993 1.982965923288741 0 0 0
224 1 3.4345988767902798 21.463726685895733 6.019465798295786 0 0 0
23 1 6.930310309286276 21.463726685885614 4.001215860865496 0 0 0
47 1 8.09554708550613 17.951580351997315 6.019465798284251 0 0 0
83 1 9.260784763710086 19.719269986072767 4.001215860766345 0 0 0
86 1 6.930307997618848 18.853828729348283 4.001215860910346 0 0 0
87 1 8.095544854349296 20.609230392884307 6.019465798336928 0 0 0
105 1 8.09554708556577 17.951580351990874 1.982965923313869 0 0 0
113 1 5.7650733311711155 19.719269986065566 1.982965923281159 0 0 0
133 1 5.7650733313205365 19.719269986093064 6.019465798287656 0 0 0
147 1 9.26078476378753 19.719269986091046 8.037715735852936 0 0 0
150 1 6.930307997563336 18.85382872933042 8.03771573584214 0 0 0
151 1 8.095544854519629 20.609230392893128 1.982965923362183 0 0 0
217 1 6.9303103092840415 21.463726685901342 8.037715735781893 0 0 0
15 1 10.426021741823964 21.463726685901097 6.0194657984012965 0 0 0
45 1 11.591258518074532 17.951580351986227 4.001215860823135 0 0 0
56 1 13.921733174315905 21.463726685890443 8.037715735838002 0 0 0
60 1 10.426021741696413 21.46372668587964 1.9829659233574908 0 0 0
82 1 12.75649619626012 19.71926998609025 6.019465798368007 0 0 0
84 1 10.426019430095687 18.853828729332147 6.019465798375369 0 0 0
85 1 11.591256286961523 20.60923039289413 4.001215860807058 0 0 0
103 1 11.591258518042684 17.951580351991122 8.037715735796233 0 0 0
117 1 13.92173086255903 18.853828729342023 8.037715735800093 0 0 0
137 1 13.921730862530657 18.853828729359797 4.001215860762165 0 0 0
146 1 12.756496196317494 19.719269986061377 1.9829659234118997 0 0 0
148 1 10.426019430023672 18.85382872935672 1.9829659233391839 0 0 0
149 1 11.591256286872955 20.609230392887945 8.037715735747815 0 0 0
226 1 13.921733174253959 21.463726685874768 4.001215860827442 0 0 0
2 1 1.104123392353 23.262058453958 6.019465798333 0 0 0
4 1 3.434597727296 26.61037779161 6.019465798333 0 0 0
13 1 2.26936048991 24.990681807918 8.037715735833 0 0 0
17 1 3.434597727296 24.127767215617 1.982965923333 0 0 0
22 1 4.599834824853 25.524033467998 8.037715735833 0 0 0
30 1 1.104123392353 25.524033467998 1.982965923333 0 0 0
55 1 4.599834824853 23.262058453958 8.037715735833 0 0 0
57 1 1.104123392353 23.262058453958 1.982965923333 0 0 0
139 1 2.26936048991 24.990681807918 4.001215860833 0 0 0
140 1 3.434597727296 24.127767215617 6.019465798333 0 0 0
141 1 4.599834824853 25.524033467998 4.001215860833 0 0 0
143 1 1.104123392353 25.524033467998 6.019465798333 0 0 0
220 1 2.26935993545368 22.32687104527125 8.037715735851048 0 0 0
223 1 2.2693599354751335 22.326871045288495 4.001215860859148 0 0 0
225 1 4.599834824853 23.262058453958 4.001215860833 0 0 0
229 1 3.434597727296 26.61037779161 1.982965923333 0 0 0
8 1 5.76507192241 24.990681807918 1.982965923333 0 0 0
10 1 9.260782800468894 22.326871045275713 4.001215860784816 0 0 0
27 1 8.095546257353 23.262058453958 6.019465798333 0 0 0
59 1 9.260782800483033 22.32687104525867 8.03771573583053 0 0 0
145 1 9.26078335491 24.990681807918 4.001215860833 0 0 0
161 1 6.930309159796 26.61037779161 4.001215860833 0 0 0
170 1 6.930309159796 26.61037779161 8.037715735833 0 0 0
215 1 6.930309159796 24.127767215617 4.001215860833 0 0 0
216 1 8.095546257353 25.524033467998 6.019465798333 0 0 0
218 1 5.765071367939617 22.3268710452856 1.9829659233382992 0 0 0
219 1 8.095546257353 23.262058453958 1.982965923333 0 0 0
221 1 5.765071367979708 22.32687104526032 6.0194657983361175 0 0 0
235 1 9.26078335491 24.990681807918 8.037715735833 0 0 0
238 1 6.930309159796 24.127767215617 8.037715735833 0 0 0
239 1 8.095546257353 25.524033467998 1.982965923333 0 0 0
240 1 5.76507192241 24.990681807918 6.019465798333 0 0 0
6 1 12.756494232954825 22.326871045261903 6.019465798322563 0 0 0
18 1 11.591257689853 23.262058453958 4.001215860833 0 0 0
26 1 13.921732024796 24.127767215617 8.037715735833 0 0 0
29 1 13.921732024796 26.61037779161 4.001215860833 0 0 0
37 1 10.426020592296 26.61037779161 6.019465798333 0 0 0
58 1 12.756494233007507 22.32687104528777 1.982965923345344 0 0 0
61 1 11.591257689853 23.262058453958 8.037715735833 0 0 0
142 1 13.921732024796 24.127767215617 4.001215860833 0 0 0
144 1 12.75649478741 24.990681807918 6.019465798333 0 0 0
167 1 10.426020592296 26.61037779161 1.982965923333 0 0 0
212 1 10.426020592296 24.127767215617 6.019465798333 0 0 0
214 1 11.591257689853 25.524033467998 4.001215860833 0 0 0
232 1 13.921732024796 26.61037779161 8.037715735833 0 0 0
234 1 12.75649478741 24.990681807918 1.982965923333 0 0 0
236 1 10.426020592296 24.127767215617 1.982965923333 0 0 0
237 1 11.591257689853 25.524033467998 8.037715735833 0 0 0

Velocities

14 0 0 0
20 0 0 0
119 0 0 0
162 0 0 0
164 0 0 0
165 0 0 0
171 0 0 0
207 0 0 0
209 0 0 0
210 0 0 0
211 0 0 0
227 0 0 0
230 0 0 0
231 0 0 0
16 0 0 0
21 0 0 0
25 0 0 0
124 0 0 0
125 0 0 0
159 0 0 0
160 0 0 0
163 0 0 0
168 0 0 0
169 0 0 0
172 0 0 0
206 0 0 0
208 0 0 0
228 0 0 0
1 0 0 0
7 0 0 0
11 0 0 0
33 0 0 0
36 0 0 0
120 0 0 0
121 0 0 0
122 0 0 0
123 0 0 0
166 0 0 0
213 0 0 0
233 0 0 0
12 0 0 0
19 0 0 0
28 0 0 0
31 0 0 0
72 0 0 0
74 0 0 0
75 0 0 0
76 0 0 0
106 0 0 0
108 0 0 0
109 0 0 0
110 0 0 0
201 0 0 0
203 0 0 0
204 0 0 0
205 0 0 0
5 0 0 0
69 0 0 0
70 0 0 0
71 0 0 0
73 0 0 0
81 0 0 0
107 0 0 0
130 0 0 0
131 0 0 0
132 0 0 0
188 0 0 0
189 0 0 0
190 0 0 0
199 0 0 0
200 0 0 0
202 0 0 0
32 0 0 0
35 0 0 0
38 0 0 0
68 0 0 0
77 0 0 0
78 0 0 0
79 0 0 0
80 0 0 0
111 0 0 0
112 0 0 0
126 0 0 0
127 0 0 0
128 0 0 0
129 0 0 0
186 0 0 0
187 0 0 0
51 0 0 0
53 0 0 0
54 0 0 0
64 0 0 0
152 0 0 0
153 0 0 0
154 0 0 0
177 0 0 0
191 0 0 0
195 0 0 0
3 0 0 0
40 0 0 0
48 0 0 0
49 0 0 0
50 0 0 0
52 0 0 0
98 0 0 0
184 0 0 0
185 0 0 0
192 0 0 0
34 0 0 0
66 0 0 0
96 0 0 0
155 0 0 0
156 0 0 0
157 0 0 0
158 0 0 0
179 0 0 0
181 0 0 0
182 0 0 0
183 0 0 0
197 0 0 0
63 0 0 0
65 0 0 0
67 0 0 0
89 0 0 0
90 0 0 0
174 0 0 0
175 0 0 0
194 0 0 0
196 0 0 0
198 0 0 0
24 0 0 0
41 0 0 0
43 0 0 0
46 0 0 0
62 0 0 0
88 0 0 0
95 0 0 0
99 0 0 0
101 0 0 0
104 0 0 0
173 0 0 0
193 0 0 0
9 0 0 0
39 0 0 0
42 0 0 0
44 0 0 0
92 0 0 0
94 0 0 0
97 0 0 0
100 0 0 0
102 0 0 0
178 0 0 0
91 0 0 0
93 0 0 0
114 0 0 0
115 0 0 0
116 0 0 0
118 0 0 0
134 0 0 0
135 0 0 0
136 0 0 0
138 0 0 0
176 0 0 0
180 0 0 0
222 0 0 0
224 0 0 0
23 0 0 0
47 0 0 0
83 0 0 0
86 0 0 0
87 0 0 0
105 0 0 0
113 0 0 0
133 0 0 0
147 0 0 0
150 0 0 0
151 0 0 0
217 0 0 0
15 0 0 0
45 0 0 0
56 0 0 0
60 0 0 0
82 0 0 0
84 0 0 0
85 0 0 0
103 0 0 0
117 0 0 0
137 0 0 0
146 0 0 0
148 0 0 0
149 0 0 0
226 0 0 0
2 0 0 0
4 0 0 0
13 0 0 0
17 0 0 0
22 0 0 0
30 0 0 0
55 0 0 0
57 0 0 0
139 0 0 0
140 0 0 0
141 0 0 0
143 0 0 0
220 0 0 0
223 0 0 0
225 0 0 0
229 0 0 0
8 0 0 0
10 0 0 0
27 0 0 0
59 0 0 0
145 0 0 0
161 0 0 0
170 0 0 0
215 0 0 0
216 0 0 0
218 0 0 0
219 0 0 0
221 0 0 0
235 0 0 0
238 0 0 0
239 0 0 0
240 0 0 0
6 0 0 0
18 0 0 0
26 0 0 0
29 0 0 0
37 0 0 0
58 0 0 0
61 0 0 0
142 0 0 0
144 0 0 0
167 0 0 0
212 0 0 0
214 0 0 0
232 0 0 0
234 0 0 0
236 0 0 0
237 0 0 0
