LAMMPS data file via write_data, version 29 Aug 2024, timestep = 35, units = metal

256 atoms
2 atom types

0 14.06520962 xlo xhi
0 28.16401269 ylo yhi
0 8.12055266 zlo zhi

Masses

1 55.8
2 1

Atoms # atomic

14 1 1.057837382915 0.882609793183 6.031986631378 0 0 0
20 1 2.25573232562 1.447644730203 4.014404140079 0 0 0
119 1 2.244360603642 3.952166145731 8.064109215832 0 0 0
162 1 4.60370373332 3.201606388904 8.068442342731 0 0 0
164 1 3.418738515862 2.324412972245 1.977215467643 0 0 0
165 1 1.074861068727 3.19086264902 1.957023713454 0 0 0
171 1 4.591949718945 0.910111628979 4.018430797321 0 0 0
207 1 4.594340382624 3.209464162834 4.011853880516 0 0 0
209 1 3.426008119455 2.326209894442 6.036804230449 0 0 0
210 1 1.081883405934 3.179405063333 6.024229960683 0 0 0
211 1 2.253355164542 3.953160954879 4.005300432108 0 0 0
227 1 4.593113052432 0.910667836943 8.072870642508 0 0 0
230 1 1.069909552332 0.885056909312 1.980914216969 0 0 0
231 1 2.245764874171 1.436182171713 8.062433620996 0 0 0
16 1 8.109115727815 3.202888874678 6.027256896687 0 0 0
21 1 9.274888966746 3.965174251251 4.007438898446 0 0 0
25 1 6.930309524998 2.323694650918 4.010853915662 0 0 0
124 1 8.122515793672 3.208139656878 1.966794037592 0 0 0
125 1 9.297242101135 3.958866499871 8.056910427104 0 0 0
159 1 8.11083379317 0.898923817829 6.045176357831 0 0 0
160 1 9.274785306151 1.454175263136 4.000623562215 0 0 0
163 1 5.759295448311 3.956795327614 1.977751830146 0 0 0
168 1 8.0965370702 0.910650183494 1.979660403638 0 0 0
169 1 9.278640861412 1.456335448559 8.081283859885 0 0 0
172 1 5.742404960035 1.435417106043 6.045955118831 0 0 0
206 1 6.93382892175 2.31972088441 8.074350450819 0 0 0
208 1 5.771856665066 3.95392726375 6.049292584768 0 0 0
228 1 5.752460178392 1.422503732412 1.988217192387 0 0 0
1 1 11.630877262625 3.217544718318 3.977814716315 0 0 0
7 1 12.794040842563 3.956175965058 6.021759444947 0 0 0
11 1 10.452361787691 2.343884726503 6.028276756895 0 0 0
33 1 11.607959972679 0.912363562609 4.014394639032 0 0 0
36 1 12.802098379198 1.473576403598 6.01991250645 0 0 0
120 1 13.966959911241 2.329760724094 8.068561877266 0 0 0
121 1 11.629189718775 3.20945521179 8.058433193139 0 0 0
122 1 12.801934519506 3.956410929978 1.96886697107 0 0 0
123 1 10.462057921247 2.332371196787 1.958851649858 0 0 0
166 1 12.796014894733 1.441792984817 1.969021342776 0 0 0
213 1 13.964454616104 2.329442216092 3.985067750334 0 0 0
233 1 11.607715519335 0.915017298683 8.049571315227 0 0 0
12 1 3.418733982055984 4.805983876244268 1.9720806371791775 0 0 0
19 1 1.0756266705567 5.605502935227451 1.9632773400077799 0 0 0
28 1 2.2474377411159043 6.409203640705683 8.05751026734034 0 0 0
31 1 4.59092779451865 5.609949858991276 8.063019940912623 0 0 0
72 1 4.587997797525554 5.615132805478453 3.9994044878879342 0 0 0
74 1 3.4195745382341176 4.797290907747556 6.035036484013489 0 0 0
75 1 1.071580776729091 5.611069971833776 6.025693076690905 0 0 0
76 1 2.2442027533449362 6.408433631513417 3.9947854028885708 0 0 0
106 1 4.590104022653127 8.057502860499957 3.995553511270744 0 0 0
108 1 3.419153725424152 7.217424590461884 6.030111866520929 0 0 0
109 1 1.0783173820876315 8.058188740230749 6.009443082669007 0 0 0
110 1 2.2336996511996703 8.83053133203127 3.955993191187209 0 0 0
201 1 4.585600720604767 8.052407906683674 8.0651447824784 0 0 0
203 1 3.423949746424275 7.24679076598224 1.968820910118557 0 0 0
204 1 1.0845598969773744 8.036514625676572 1.94951722627196 0 0 0
205 1 2.268037192725726 8.846522248240147 8.058742404385168 0 0 0
5 1 5.760347739324797 6.426197601630744 1.9658847491711668 0 0 0
69 1 8.103324686110604 5.617107110942284 1.9647632466986427 0 0 0
70 1 9.267505466514407 6.425521556666863 8.050398083984451 0 0 0
71 1 6.939650962746513 4.808439676458732 8.06516409978533 0 0 0
73 1 5.760041637139193 6.40941982721898 6.026070978830496 0 0 0
81 1 8.106021189080355 5.607588249231042 6.024079088314168 0 0 0
107 1 5.717616217585936 8.845730897100658 6.019275732672812 0 0 0
130 1 8.089569983572638 8.068979138110294 1.9664313518176995 0 0 0
131 1 9.183948185441157 8.872055396923871 8.034471672407236 0 0 0
132 1 6.921763421954443 7.243825185105451 8.058771975554402 0 0 0
188 1 8.124167515395433 8.022164768649061 5.9932252871872125 0 0 0
189 1 9.285766696867974 8.88744692779471 3.979890917310158 0 0 0
190 1 6.929105784112888 7.234982595946258 3.986476991787991 0 0 0
199 1 9.273704956390844 6.42635283188599 3.988458692012111 0 0 0
200 1 6.932138829979634 4.805263182093251 3.999606644198397 0 0 0
202 1 5.746773491805012 8.882165867538477 1.9702141726027569 0 0 0
247 2 7.2458905398778075 9.401891616535899 6.468314709939964 0 0 0
32 1 13.966536118420136 4.814307182703736 8.051647798910752 0 0 0
35 1 11.623222195785821 5.623232976100187 8.048123541400383 0 0 0
38 1 12.795719254711553 6.411452331820061 1.959987376224461 0 0 0
68 1 10.45213106359179 4.815051380483645 1.9650526263904775 0 0 0
77 1 13.970006949486306 4.8117673519582675 3.996914259156456 0 0 0
78 1 11.62502965431642 5.624717774790247 3.9925428019426517 0 0 0
79 1 12.795674096507684 6.4467024849246135 6.018196384289445 0 0 0
80 1 10.45523293179028 4.813235074138344 6.021965040996972 0 0 0
111 1 13.968903391197138 7.249645567831834 3.988863794429989 0 0 0
112 1 11.624918548270344 8.073235083811344 3.98760043812025 0 0 0
126 1 13.974282124937734 7.264678573611326 8.039442613604919 0 0 0
127 1 11.60389048293534 8.046179986214932 8.0253540895673 0 0 0
128 1 12.821450709572865 8.822116195600277 1.9912473489348805 0 0 0
129 1 10.438886325901871 7.241632487081812 1.9646463969616783 0 0 0
186 1 12.822313441605678 8.940447981468948 5.989141648738864 0 0 0
187 1 10.444987468699146 7.236523846292257 6.007696720008733 0 0 0
51 1 4.661365447908804 10.661007628456163 3.96931306687122 0 0 0
53 1 3.448022179583144 9.645639402296515 6.072648484797421 0 0 0
54 1 1.1642021841824 10.566119661056625 5.897947824489101 0 0 0
64 1 3.5140199989405168 12.058387961191782 6.00282547447939 0 0 0
152 1 3.430589953282119 9.732258498378 1.9596478141832079 0 0 0
153 1 1.11288925123512 10.539536485612286 1.9351583248632895 0 0 0
154 1 2.2411468362756315 11.281472470086898 8.016435708228183 0 0 0
177 1 2.2150268590273985 11.43604805712657 3.877208473973115 0 0 0
191 1 4.5752706875846565 10.609862731813088 8.060821262532789 0 0 0
195 1 3.379438629964026 12.173828902418844 1.8196609661321648 0 0 0
243 2 3.543741226516113 12.374613559165237 7.914435289856682 0 0 0
251 2 1.0054761694895349 12.173480426763419 4.995035865007387 0 0 0
252 2 3.147216039562743 10.149624136023869 4.506294874715006 0 0 0
3 1 6.947389535154948 9.688400086533848 3.9855192277727944 0 0 0
40 1 6.952035199683274 12.153552257840072 0.01507164550207939 0 0 1
48 1 8.091991050780969 10.624293203328229 1.9786586909067647 0 0 0
49 1 9.297816233934551 11.369642323766739 8.107663664855842 0 0 0
50 1 6.9008694799564685 9.74751490982058 8.10292245406973 0 0 0
52 1 5.811064058727365 11.314678958136575 6.052895156518165 0 0 0
98 1 6.90811772546821 12.073723215725167 3.972416059345688 0 0 0
184 1 8.183895582195998 10.737594994065146 5.990774654636964 0 0 0
185 1 9.300907291569324 11.3646907570805 3.9668707274287116 0 0 0
192 1 5.762485929906846 11.318820571125858 1.9479633678010861 0 0 0
242 2 8.345184988459648 12.346317731020163 5.064262008807666 0 0 0
254 2 5.167270752493789 12.292227047833842 4.783650563131715 0 0 0
256 2 7.143077467146059 12.334532473790187 2.0646274084287164 0 0 0
34 1 10.575999228706879 12.11693680593358 1.9640805837121535 0 0 0
66 1 13.98286893543596 12.24667333442781 3.6396350382646445 0 0 0
96 1 10.499096262452767 12.088528168699057 6.041314028671761 0 0 0
155 1 0.01781442421971491 9.812503207477768 7.982960025416223 1 0 0
156 1 11.7061759378319 10.847520399766983 7.946752212599444 0 0 0
157 1 12.788592488008417 11.19059418297258 1.9588275967310846 0 0 0
158 1 10.433507097316408 9.713221051584481 2.0002167330750087 0 0 0
179 1 13.988337070705988 9.716890224819462 3.961813092959195 0 0 0
181 1 11.671461774261344 10.661162348767254 4.024845381843909 0 0 0
182 1 13.148954510216265 11.720047559028659 5.99333931480394 0 0 0
183 1 10.414503047671499 9.68373930986511 5.990775503968373 0 0 0
197 1 0.048852149875484585 12.521817047469103 0.4913459325610519 1 0 1
244 2 12.130494432533418 12.33023275922058 3.1083622040935905 0 0 0
245 2 0.4807501616857371 11.467941983957825 7.27825317776823 1 0 0
246 2 10.69891189282306 12.400830890918588 8.112277343800635 0 0 -1
248 2 10.654150610107013 9.538110353886774 0.2640990586970266 0 0 0
253 2 11.864501021161782 10.584591630751778 6.113673899662832 0 0 0
255 2 12.55994513808109 9.407006203184846 0.4019016614460637 0 0 0
63 1 2.2010822110954584 16.571345896579224 4.033369178375318 0 0 0
65 1 4.5705769558521645 17.300541739807784 4.0077672129235955 0 0 0
67 1 1.0815259515125095 17.315448150768525 6.0632907686074935 0 0 0
90 1 3.4079297719703403 18.02697155396571 1.9814543182657456 0 0 0
175 1 3.4044563045719585 18.041557774487043 6.021543456833869 0 0 0
194 1 2.275775202432227 16.56043486384655 8.097739443194092 0 0 0
196 1 4.585137154343535 17.343965678659128 8.06460780619615 0 0 0
198 1 1.0706349719598738 17.313162301514915 1.9902400226892583 0 0 0
250 2 3.7943922972391024 16.44615357400654 1.2248948414231446 0 0 0
24 1 9.284861471875725 16.56645305808061 8.071962383601766 0 0 0
41 1 8.091849943308194 17.31520973349502 1.967984246280004 0 0 0
46 1 6.900168455244212 18.004822213556306 3.9894554083138285 0 0 0
62 1 5.720905462249387 16.573011549929003 6.054894739713157 0 0 0
95 1 9.247708406250423 16.590294368440805 3.992450202739202 0 0 0
99 1 8.060986071150847 17.276411255476088 6.017911891502514 0 0 0
104 1 6.926508907522007 18.02141753868874 8.05375437694935 0 0 0
193 1 5.733206633271204 16.58087281266812 1.9332289474033983 0 0 0
249 2 6.073065442991118 16.426936001512544 7.962924357052973 0 0 -1
9 1 12.81564099843141 16.52074470080794 1.991264649342231 0 0 0
39 1 11.639860732027728 17.28097503935956 0.0016559544566376477 0 0 1
44 1 10.349692410398061 17.940265480912917 5.962834460641985 0 0 0
92 1 13.98890209621652 18.030279368446116 8.087708755803794 0 0 0
94 1 12.790125758939455 16.605895889811016 6.027335899202181 0 0 0
97 1 11.608543794112473 17.29901070329577 3.9798388479271867 0 0 0
102 1 10.438405228484056 18.018275030465997 1.9806434581227075 0 0 0
178 1 13.969780869678685 18.01279739118497 4.007361135038822 0 0 0
241 2 11.50972420735792 18.58348329889013 6.963884883898628 0 0 0
89 1 2.248162633481637 18.926208018482065 8.062276504471061 0 0 0
91 1 4.585263377390952 19.752082747067604 8.058347815541701 0 0 0
93 1 1.0767695316538097 19.736150522730256 1.9758460108355562 0 0 0
114 1 2.2474964620922715 21.36537235636531 8.058947567974943 0 0 0
115 1 3.414496558535636 20.546946324706013 1.9689387549787614 0 0 0
116 1 4.587056081812981 22.181207598623253 8.059975175052593 0 0 0
118 1 1.0687815125105247 22.166968995093892 1.9687049908792367 0 0 0
134 1 2.2416270709212704 21.361273887179973 3.9975841369647904 0 0 0
135 1 3.4165649315764917 20.557541187313706 6.026083643374723 0 0 0
136 1 4.583627582311476 22.177508708491423 3.9982450770337947 0 0 0
138 1 1.072063195890221 22.174331962152785 6.026266524254131 0 0 0
174 1 2.24378738081894 18.915410642145808 4.003546422223302 0 0 0
176 1 4.579241614976274 19.737375847754464 3.9970095119116227 0 0 0
180 1 1.0841262633567044 19.74539370194299 6.03190597771264 0 0 0
222 1 3.4116863235737007 22.992223177861 1.9689183284584486 0 0 0
224 1 3.4151038145659047 22.994705808996425 6.026560656998289 0 0 0
23 1 6.926088146556845 22.99746924054112 4.001566752366871 0 0 0
43 1 9.247015261780517 18.915883542093162 3.9852498974049446 0 0 0
47 1 8.08779098415574 19.723520540011183 6.029310764267997 0 0 0
83 1 9.266451693338325 21.361680888731605 4.0059210600293875 0 0 0
86 1 6.922378424025476 20.54822372147358 3.998043595874797 0 0 0
87 1 8.098957685025981 22.170234839385177 6.032258653445107 0 0 0
88 1 5.757335387705143 18.938110802810506 1.9779110936683435 0 0 0
101 1 9.260477064308242 18.910854121599762 8.06573645358592 0 0 0
105 1 8.09413626153595 19.74058505856385 1.9631518553326404 0 0 0
113 1 5.756371489081833 21.371859691435365 1.9694594841592306 0 0 0
133 1 5.7559600375131055 21.36670853498775 6.0287664288967155 0 0 0
147 1 9.26939090250809 21.36618696838876 8.062905093581175 0 0 0
150 1 6.927069661502212 20.546997683035205 8.05721818362503 0 0 0
151 1 8.098746460283303 22.180329226444474 1.970601290814127 0 0 0
173 1 5.742317580992953 18.924416231331467 6.019447816690996 0 0 0
217 1 6.928649281251276 22.998010329545618 8.060600303286666 0 0 0
15 1 10.441528468191132 22.991858523224405 6.031410146881769 0 0 0
42 1 12.842197971246698 18.941131192293703 6.003104462335387 0 0 0
45 1 11.613220940218769 19.73154480111081 3.997020414498549 0 0 0
56 1 13.96326514697985 22.99672253779466 8.056845068390361 0 0 0
60 1 10.439890214482915 22.999367700998835 1.9730594991234711 0 0 0
82 1 12.795218797188511 21.37387580592601 6.031095147933506 0 0 0
84 1 10.440597703508542 20.542883191461314 6.032017485830273 0 0 0
85 1 11.61335475090938 22.167092778509513 4.003246464947903 0 0 0
100 1 12.800030202282088 18.904668781690305 1.9919248256800781 0 0 0
103 1 11.625465640528008 19.787521553749077 0.0014241426718235905 0 0 1
117 1 13.974117112912207 20.558293859354006 8.068590859541574 0 0 0
137 1 13.96420894588846 20.5451432170414 4.001699874914244 0 0 0
146 1 12.791149251031102 21.35951027286745 1.9766992072778042 0 0 0
148 1 10.436248230726639 20.556683814789846 1.9830867940066697 0 0 0
149 1 11.61621777789519 22.186202455061444 8.066704225686335 0 0 0
226 1 13.959851538864436 22.98702167253932 3.9966869447990767 0 0 0
2 1 1.076727381391 24.586469888427 6.014516399208 0 0 0
4 1 3.40994705659 27.968465186677 6.018819642473 0 0 0
13 1 2.231707400416 26.319436872092 8.061255166394 0 0 0
17 1 3.400807342726 25.460067222931 1.978711111032 0 0 0
22 1 4.573483505235 26.917418863688 8.061385988497 0 0 0
30 1 1.048241393652 26.892818409533 1.955998087653 0 0 0
55 1 4.583388647805 24.608692099769 8.068630089909 0 0 0
57 1 1.05661244381 24.586834146213 1.962799781355 0 0 0
139 1 2.215835795925 26.336208145932 4.004391742266 0 0 0
140 1 3.405626364846 25.456368701043 6.018140358243 0 0 0
141 1 4.577589421227 26.901967620282 3.996477126821 0 0 0
143 1 1.058017558251 26.887563649091 6.048239430294 0 0 0
220 1 2.240896852189626 23.805983798378975 8.05721358031622 0 0 0
223 1 2.237842349364754 23.80303625100936 3.9923239411613114 0 0 0
225 1 4.575138277146 24.608764702686 3.997607182929 0 0 0
229 1 3.394482639917 27.967230937087 1.985170036207 0 0 0
8 1 5.764516735426 26.355935750881 1.957580620955 0 0 0
10 1 9.268633540133047 23.81156891066964 4.000641363336616 0 0 0
27 1 8.098971336029 24.603884394275 6.036138669953 0 0 0
59 1 9.271054696082288 23.817892084740947 8.060007762458229 0 0 0
145 1 9.278891784752 26.340725439758 4.00373706331 0 0 0
161 1 6.939146555551 27.977497536567 4.006002941119 0 0 0
170 1 6.937718936774 27.980692313558 8.054253869507 0 0 0
215 1 6.92729760101 25.469423550906 3.993871809911 0 0 0
216 1 8.100270680094 26.900166222563 6.027167976635 0 0 0
218 1 5.755371305581755 23.81636655867366 1.9726523059198107 0 0 0
219 1 8.100162096675 24.613224312002 1.958446921513 0 0 0
221 1 5.755245097869542 23.817312743826044 6.031145254865367 0 0 0
235 1 9.283640762128 26.386751710928 8.076086706183 0 0 0
238 1 6.935354434385 25.472930868536 8.07316631183 0 0 0
239 1 8.098209564276 26.914094047911 1.995625734989 0 0 0
240 1 5.744090534756 26.355448167592 6.033969020693 0 0 0
6 1 12.787162712055736 23.811649696978026 6.0273121614161465 0 0 0
18 1 11.617012904198 24.589855621035 3.995117746306 0 0 0
26 1 13.958898717652 25.469825850631 8.04507131097 0 0 0
29 1 13.950212044191 27.979561746901 3.992627010394 0 0 0
37 1 10.444634783482 27.996639096737 6.03736714716 0 0 0
58 1 12.785095318127116 23.801478381371098 1.965242157769225 0 0 0
61 1 11.60650605196 24.60103274066 8.055540246254 0 0 0
142 1 13.957838200847 25.459328015833 3.993168326434 0 0 0
144 1 12.776089696829 26.34713687407 6.016990569192 0 0 0
167 1 10.442632460241 28.007563597992 1.981290523379 0 0 0
212 1 10.437962810647 25.48024660699 6.034886237116 0 0 0
214 1 11.622113933771 26.899369330956 3.997829767278 0 0 0
232 1 13.943125850932 27.997755988187 8.066013891458 0 0 0
234 1 12.783040582771 26.317976359987 1.975268646348 0 0 0
236 1 10.450743022716 25.477436476275 1.967506534883 0 0 0
237 1 11.635301333659 26.910247087868 8.073659229376 0 0 0

Velocities

14 0 0 0
20 0 0 0
119 0 0 0
162 0 0 0
164 0 0 0
165 0 0 0
171 0 0 0
207 0 0 0
209 0 0 0
210 0 0 0
211 0 0 0
227 0 0 0
230 0 0 0
231 0 0 0
16 0 0 0
21 0 0 0
25 0 0 0
124 0 0 0
125 0 0 0
159 0 0 0
160 0 0 0
163 0 0 0
168 0 0 0
169 0 0 0
172 0 0 0
206 0 0 0
208 0 0 0
228 0 0 0
1 0 0 0
7 0 0 0
11 0 0 0
33 0 0 0
36 0 0 0
120 0 0 0
121 0 0 0
122 0 0 0
123 0 0 0
166 0 0 0
213 0 0 0
233 0 0 0
12 0 0 0
19 0 0 0
28 0 0 0
31 0 0 0
72 0 0 0
74 0 0 0
75 0 0 0
76 0 0 0
106 0 0 0
108 0 0 0
109 0 0 0
110 0 0 0
201 0 0 0
203 0 0 0
204 0 0 0
205 0 0 0
5 0 0 0
69 0 0 0
70 0 0 0
71 0 0 0
73 0 0 0
81 0 0 0
107 0 0 0
130 0 0 0
131 0 0 0
132 0 0 0
188 0 0 0
189 0 0 0
190 0 0 0
199 0 0 0
200 0 0 0
202 0 0 0
247 0 0 0
32 0 0 0
35 0 0 0
38 0 0 0
68 0 0 0
77 0 0 0
78 0 0 0
79 0 0 0
80 0 0 0
111 0 0 0
112 0 0 0
126 0 0 0
127 0 0 0
128 0 0 0
129 0 0 0
186 0 0 0
187 0 0 0
51 0 0 0
53 0 0 0
54 0 0 0
64 0 0 0
152 0 0 0
153 0 0 0
154 0 0 0
177 0 0 0
191 0 0 0
195 0 0 0
243 0 0 0
251 0 0 0
252 0 0 0
3 0 0 0
40 0 0 0
48 0 0 0
49 0 0 0
50 0 0 0
52 0 0 0
98 0 0 0
184 0 0 0
185 0 0 0
192 0 0 0
242 0 0 0
254 0 0 0
256 0 0 0
34 0 0 0
66 0 0 0
96 0 0 0
155 0 0 0
156 0 0 0
157 0 0 0
158 0 0 0
179 0 0 0
181 0 0 0
182 0 0 0
183 0 0 0
197 0 0 0
244 0 0 0
245 0 0 0
246 0 0 0
248 0 0 0
253 0 0 0
255 0 0 0
63 0 0 0
65 0 0 0
67 0 0 0
90 0 0 0
175 0 0 0
194 0 0 0
196 0 0 0
198 0 0 0
250 0 0 0
24 0 0 0
41 0 0 0
46 0 0 0
62 0 0 0
95 0 0 0
99 0 0 0
104 0 0 0
193 0 0 0
249 0 0 0
9 0 0 0
39 0 0 0
44 0 0 0
92 0 0 0
94 0 0 0
97 0 0 0
102 0 0 0
178 0 0 0
241 0 0 0
89 0 0 0
91 0 0 0
93 0 0 0
114 0 0 0
115 0 0 0
116 0 0 0
118 0 0 0
134 0 0 0
135 0 0 0
136 0 0 0
138 0 0 0
174 0 0 0
176 0 0 0
180 0 0 0
222 0 0 0
224 0 0 0
23 0 0 0
43 0 0 0
47 0 0 0
83 0 0 0
86 0 0 0
87 0 0 0
88 0 0 0
101 0 0 0
105 0 0 0
113 0 0 0
133 0 0 0
147 0 0 0
150 0 0 0
151 0 0 0
173 0 0 0
217 0 0 0
15 0 0 0
42 0 0 0
45 0 0 0
56 0 0 0
60 0 0 0
82 0 0 0
84 0 0 0
85 0 0 0
100 0 0 0
103 0 0 0
117 0 0 0
137 0 0 0
146 0 0 0
148 0 0 0
149 0 0 0
226 0 0 0
2 0 0 0
4 0 0 0
13 0 0 0
17 0 0 0
22 0 0 0
30 0 0 0
55 0 0 0
57 0 0 0
139 0 0 0
140 0 0 0
141 0 0 0
143 0 0 0
220 0 0 0
223 0 0 0
225 0 0 0
229 0 0 0
8 0 0 0
10 0 0 0
27 0 0 0
59 0 0 0
145 0 0 0
161 0 0 0
170 0 0 0
215 0 0 0
216 0 0 0
218 0 0 0
219 0 0 0
221 0 0 0
235 0 0 0
238 0 0 0
239 0 0 0
240 0 0 0
6 0 0 0
18 0 0 0
26 0 0 0
29 0 0 0
37 0 0 0
58 0 0 0
61 0 0 0
142 0 0 0
144 0 0 0
167 0 0 0
212 0 0 0
214 0 0 0
232 0 0 0
234 0 0 0
236 0 0 0
237 0 0 0
