LAMMPS data file via write_data, version 29 Aug 2024, timestep = 5, units = metal

240 atoms
1 atom types

0 13.98284573 xlo xhi
0 30.71841258 ylo yhi
0 8.07299975 zlo zhi

Masses

1 55.8

Atoms # atomic

14 1 1.104123392353 0.978309288037 6.019465798333 0 0 0
20 1 2.26936048991 1.511660948117 4.001215860833 0 0 0
119 1 2.269360540038458 4.034947605605582 8.037715735832997 0 0 0
162 1 4.599834824853 3.240284549262 8.037715735833 0 0 0
164 1 3.434597727296 2.374575787602 1.982965923333 0 0 0
165 1 1.104123392353 3.240284549262 1.982965923333 0 0 0
171 1 4.599834824853 0.978309288037 4.001215860833 0 0 0
207 1 4.599834824853 3.240284549262 4.001215860833 0 0 0
209 1 3.434597727296 2.374575787602 6.019465798333 0 0 0
210 1 1.104123392353 3.240284549262 6.019465798333 0 0 0
211 1 2.2693605400384578 4.034947605605584 4.001215860833 0 0 0
227 1 4.599834824853 0.978309288037 8.037715735833 0 0 0
230 1 1.104123392353 0.978309288037 1.982965923333 0 0 0
231 1 2.26936048991 1.511660948117 8.037715735833 0 0 0
16 1 8.095546257353 3.240284549262 6.019465798333 0 0 0
21 1 9.260783405038461 4.034947605605584 4.001215860833 0 0 0
25 1 6.930309159796 2.374575787602 4.001215860833 0 0 0
124 1 8.095546257353 3.240284549262 1.982965923333 0 0 0
125 1 9.260783405038461 4.0349476056055815 8.037715735833 0 0 0
159 1 8.095546257353 0.978309288037 6.019465798333 0 0 0
160 1 9.26078335491 1.511660948117 4.001215860833 0 0 0
163 1 5.765071972538458 4.034947605605584 1.9829659233330006 0 0 0
168 1 8.095546257353 0.978309288037 1.982965923333 0 0 0
169 1 9.26078335491 1.511660948117 8.037715735833 0 0 0
172 1 5.76507192241 1.511660948117 6.019465798333 0 0 0
206 1 6.930309159796 2.374575787602 8.037715735833 0 0 0
208 1 5.7650719725384585 4.034947605605581 6.019465798333 0 0 0
228 1 5.76507192241 1.511660948117 1.982965923333 0 0 0
1 1 11.591257689853 3.240284549262 4.001215860833 0 0 0
7 1 12.75649483753846 4.0349476056055815 6.019465798332999 0 0 0
11 1 10.426020592296 2.374575787602 6.019465798333 0 0 0
33 1 11.591257689853 0.978309288037 4.001215860833 0 0 0
36 1 12.75649478741 1.511660948117 6.019465798333 0 0 0
120 1 13.921732024796 2.374575787602 8.037715735833 0 0 0
121 1 11.591257689853 3.240284549262 8.037715735833 0 0 0
122 1 12.756494837538458 4.034947605605581 1.9829659233330008 0 0 0
123 1 10.426020592296 2.374575787602 1.982965923333 0 0 0
166 1 12.75649478741 1.511660948117 1.982965923333 0 0 0
213 1 13.921732024796 2.374575787602 4.001215860833 0 0 0
233 1 11.591257689853 0.978309288037 8.037715735833 0 0 0
12 1 3.4345976827352236 4.866340815388797 1.9829659233330037 0 0 0
19 1 1.1041233934833172 5.669781421588972 1.9829659233329995 0 0 0
28 1 2.26936053694288 6.482872889467123 8.037715735832998 0 0 0
31 1 4.599834825983318 5.669781421588971 8.037715735833002 0 0 0
72 1 4.599834825983314 5.66978142158897 4.001215860832996 0 0 0
74 1 3.4345976827352196 4.866340815388795 6.019465798333001 0 0 0
75 1 1.104123393483318 5.669781421588971 6.019465798333001 0 0 0
76 1 2.2693605369428838 6.482872889467123 4.001215860833 0 0 0
106 1 4.599834824674018 8.110152418977627 4.001215860833001 0 0 0
108 1 3.4345976805630096 7.301035725163746 6.019465798333 0 0 0
109 1 1.1041233921740135 8.110152418977624 6.019465798333003 0 0 0
201 1 4.59983482467401 8.110152418977627 8.037715735832997 0 0 0
203 1 3.434597680563009 7.301035725163745 1.982965923333001 0 0 0
204 1 1.1041233921740148 8.110152418977627 1.9829659233330008 0 0 0
5 1 5.7650719694428805 6.482872889467122 1.9829659233330035 0 0 0
69 1 8.095546258483317 5.66978142158897 1.9829659233330024 0 0 0
70 1 9.260783401942884 6.482872889467123 8.037715735833 0 0 0
71 1 6.930309115235218 4.866340815388798 8.037715735832998 0 0 0
73 1 5.765071969442885 6.4828728894671235 6.019465798333001 0 0 0
81 1 8.095546258483315 5.669781421588975 6.019465798332998 0 0 0
130 1 8.095546257174014 8.110152418977629 1.9829659233330013 0 0 0
132 1 6.930309113063008 7.301035725163743 8.037715735832997 0 0 0
188 1 8.095546257174014 8.110152418977625 6.019465798332998 0 0 0
190 1 6.930309113063007 7.3010357251637465 4.001215860833001 0 0 0
199 1 9.26078340194288 6.482872889467119 4.001215860833001 0 0 0
200 1 6.930309115235223 4.866340815388793 4.0012158608330015 0 0 0
32 1 13.921731980235222 4.866340815388799 8.037715735833 0 0 0
35 1 11.591257690983314 5.669781421588971 8.037715735833002 0 0 0
38 1 12.75649483444288 6.482872889467125 1.9829659233329997 0 0 0
68 1 10.426020547735218 4.866340815388796 1.9829659233330015 0 0 0
77 1 13.921731980235222 4.866340815388796 4.001215860833003 0 0 0
78 1 11.591257690983314 5.669781421588972 4.001215860833 0 0 0
79 1 12.756494834442883 6.482872889467128 6.019465798333001 0 0 0
80 1 10.426020547735222 4.866340815388798 6.019465798332998 0 0 0
111 1 13.921731978063008 7.301035725163745 4.001215860833001 0 0 0
112 1 11.591257689674013 8.110152418977627 4.0012158608330015 0 0 0
126 1 13.921731978063011 7.301035725163747 8.037715735832997 0 0 0
127 1 11.591257689674014 8.110152418977629 8.037715735833 0 0 0
129 1 10.426020545563008 7.3010357251637465 1.9829659233329997 0 0 0
187 1 10.426020545563011 7.301035725163744 6.019465798333 0 0 0
51 1 4.599834828949677 10.646106606253088 4.001215860833001 0 0 0
53 1 3.434597683038753 9.739870679471204 6.019465798332998 0 0 0
54 1 1.1041233964496793 10.646106606253088 6.019465798333 0 0 0
64 1 3.4345976862672494 12.059927529811699 6.019465798332999 0 0 0
110 1 2.269360537322817 8.915943900229541 4.001215860832999 0 0 0
152 1 3.4345976830387555 9.739870679471203 1.9829659233330046 0 0 0
153 1 1.1041233964496802 10.64610660625309 1.9829659233329997 0 0 0
154 1 2.269360541823675 11.336941751969352 8.037715735832998 0 0 0
177 1 2.2693605418236773 11.33694175196935 4.0012158608330015 0 0 0
191 1 4.599834828949679 10.646106606253088 8.037715735832997 0 0 0
195 1 3.434597686267247 12.059927529811699 1.9829659233330028 0 0 0
205 1 2.269360537322816 8.91594390022954 8.037715735832998 0 0 0
3 1 6.930309115538749 9.739870679471203 4.001215860832999 0 0 0
40 1 6.930309118767247 12.0599275298117 8.037715735832997 0 0 0
48 1 8.095546261449682 10.646106606253088 1.9829659233329997 0 0 0
49 1 9.260783406823675 11.336941751969352 8.037715735832998 0 0 0
50 1 6.930309115538753 9.739870679471203 8.037715735833 0 0 0
52 1 5.765071974323675 11.336941751969349 6.019465798332997 0 0 0
98 1 6.930309118767245 12.0599275298117 4.0012158608330015 0 0 0
107 1 5.765071969822817 8.915943900229543 6.019465798333 0 0 0
131 1 9.260783402322817 8.915943900229541 8.037715735833 0 0 0
184 1 8.095546261449678 10.646106606253088 6.019465798333 0 0 0
185 1 9.260783406823675 11.336941751969352 4.0012158608330015 0 0 0
189 1 9.260783402322817 8.915943900229545 4.001215860833 0 0 0
192 1 5.765071974323674 11.33694175196935 1.982965923333002 0 0 0
202 1 5.7650719698228166 8.915943900229541 1.9829659233330037 0 0 0
34 1 10.42602055126725 12.059927529811699 1.9829659233329997 0 0 0
66 1 13.921731983767248 12.0599275298117 4.001215860832999 0 0 0
96 1 10.426020551267248 12.059927529811699 6.019465798333003 0 0 0
128 1 12.756494834822815 8.915943900229541 1.9829659233329995 0 0 0
155 1 13.921731980538754 9.739870679471203 8.037715735832998 0 0 0
156 1 11.59125769394968 10.64610660625309 8.037715735833 0 0 0
157 1 12.756494839323675 11.33694175196935 1.9829659233329986 0 0 0
158 1 10.426020548038752 9.739870679471204 1.9829659233330013 0 0 0
179 1 13.921731980538752 9.739870679471204 4.001215860833 0 0 0
181 1 11.591257693949679 10.646106606253088 4.001215860833 0 0 0
182 1 12.756494839323674 11.33694175196935 6.019465798333001 0 0 0
183 1 10.426020548038755 9.739870679471206 6.019465798333 0 0 0
186 1 12.756494834822815 8.915943900229541 6.019465798333003 0 0 0
197 1 13.921731983767248 12.059927529811699 8.037715735833 0 0 0
63 1 2.269360528946564 19.267638151942407 4.001215860832999 0 0 0
65 1 4.599834818150787 19.99006259011947 4.0012158608330015 0 0 0
67 1 1.1041233856507906 19.99006259011947 6.019465798333002 0 0 0
89 1 2.269360532283156 21.587710138471195 8.037715735832995 0 0 0
90 1 3.4345976745708886 20.678864390141342 1.982965923333 0 0 0
174 1 2.269360532283156 21.587710138471195 4.001215860833001 0 0 0
175 1 3.43459767457089 20.67886439014135 6.019465798333002 0 0 0
194 1 2.269360528946565 19.267638151942414 8.037715735833 0 0 0
196 1 4.5998348181507875 19.99006259011948 8.037715735832998 0 0 0
198 1 1.104123385650788 19.99006259011947 1.9829659233329993 0 0 0
24 1 9.260783393946562 19.26763815194241 8.037715735833 0 0 0
41 1 8.09554625065079 19.990062590119468 1.982965923332999 0 0 0
43 1 9.26078339728316 21.587710138471195 4.001215860833002 0 0 0
46 1 6.93030910707089 20.678864390141346 4.001215860833003 0 0 0
62 1 5.765071961446562 19.26763815194241 6.019465798333001 0 0 0
88 1 5.765071964783154 21.587710138471195 1.9829659233329995 0 0 0
95 1 9.260783393946564 19.267638151942407 4.001215860833001 0 0 0
99 1 8.09554625065079 19.990062590119468 6.019465798332998 0 0 0
101 1 9.260783397283152 21.58771013847119 8.037715735833 0 0 0
104 1 6.930309107070886 20.678864390141346 8.037715735833 0 0 0
173 1 5.765071964783153 21.587710138471195 6.019465798333001 0 0 0
193 1 5.7650719614465595 19.26763815194241 1.982965923333 0 0 0
9 1 12.756494826446568 19.267638151942407 1.9829659233329988 0 0 0
39 1 11.59125768315079 19.990062590119468 8.037715735832998 0 0 0
42 1 12.756494829783156 21.58771013847119 6.019465798333002 0 0 0
44 1 10.426020539570887 20.678864390141346 6.019465798332998 0 0 0
92 1 13.921731972070887 20.678864390141346 8.037715735833 0 0 0
94 1 12.756494826446566 19.267638151942407 6.019465798333003 0 0 0
97 1 11.591257683150788 19.990062590119468 4.001215860833003 0 0 0
100 1 12.756494829783156 21.58771013847119 1.9829659233330008 0 0 0
102 1 10.426020539570887 20.678864390141346 1.982965923333001 0 0 0
178 1 13.921731972070889 20.678864390141346 4.001215860832999 0 0 0
91 1 4.599834821566303 22.40809708786567 8.037715735832998 0 0 0
93 1 1.104123389066305 22.40809708786568 1.9829659233329988 0 0 0
114 1 2.2693605361326976 24.025944251531723 8.037715735832998 0 0 0
115 1 3.434597678881981 23.213245834353774 1.9829659233329997 0 0 0
116 1 4.59983482531132 24.83511636433714 8.037715735833 0 0 0
118 1 1.1041233928113223 24.835116364337132 1.9829659233329981 0 0 0
134 1 2.2693605361327016 24.025944251531723 4.0012158608330015 0 0 0
135 1 3.4345976788819828 23.21324583435377 6.019465798332998 0 0 0
136 1 4.599834825311323 24.83511636433714 4.001215860833 0 0 0
138 1 1.1041233928113245 24.835116364337136 6.019465798333003 0 0 0
176 1 4.599834821566301 22.408097087865677 4.0012158608330015 0 0 0
180 1 1.1041233890663065 22.408097087865677 6.019465798333004 0 0 0
222 1 3.4345976824506383 25.656583075465278 1.9829659233330006 0 0 0
224 1 3.4345976824506415 25.656583075465278 6.019465798333001 0 0 0
23 1 6.930309114950645 25.65658307546528 4.001215860832998 0 0 0
47 1 8.095546254066305 22.40809708786568 6.019465798332999 0 0 0
83 1 9.260783401132699 24.025944251531726 4.0012158608330015 0 0 0
86 1 6.930309111381986 23.213245834353774 4.001215860833 0 0 0
87 1 8.095546257811321 24.835116364337132 6.019465798333002 0 0 0
105 1 8.095546254066303 22.40809708786568 1.9829659233329981 0 0 0
113 1 5.765071968632702 24.025944251531726 1.9829659233330017 0 0 0
133 1 5.765071968632703 24.025944251531726 6.019465798333001 0 0 0
147 1 9.260783401132699 24.025944251531726 8.037715735832998 0 0 0
150 1 6.930309111381984 23.21324583435377 8.037715735833002 0 0 0
151 1 8.095546257811318 24.835116364337136 1.9829659233330037 0 0 0
217 1 6.930309114950641 25.656583075465278 8.037715735832995 0 0 0
15 1 10.426020547450644 25.65658307546528 6.019465798332998 0 0 0
45 1 11.5912576865663 22.408097087865677 4.001215860832998 0 0 0
56 1 13.92173197995064 25.656583075465278 8.037715735833004 0 0 0
60 1 10.426020547450646 25.65658307546528 1.9829659233330004 0 0 0
82 1 12.756494833632697 24.02594425153173 6.019465798332997 0 0 0
84 1 10.426020543881982 23.21324583435377 6.019465798332997 0 0 0
85 1 11.591257690311325 24.83511636433714 4.001215860833 0 0 0
103 1 11.591257686566303 22.408097087865677 8.037715735833 0 0 0
117 1 13.921731976381986 23.213245834353774 8.037715735833 0 0 0
137 1 13.921731976381983 23.213245834353774 4.001215860832997 0 0 0
146 1 12.7564948336327 24.02594425153173 1.9829659233330017 0 0 0
148 1 10.42602054388198 23.21324583435377 1.9829659233330035 0 0 0
149 1 11.591257690311322 24.835116364337136 8.037715735833002 0 0 0
226 1 13.921731979950637 25.65658307546528 4.001215860832999 0 0 0
2 1 1.104123392353 27.262058453958 6.019465798333 0 0 0
4 1 3.434597727296 30.61037779161 6.019465798333 0 0 0
13 1 2.26936048991 28.990681807918 8.037715735833 0 0 0
17 1 3.434597727296 28.127767215617 1.982965923333 0 0 0
22 1 4.599834824853 29.524033467998 8.037715735833 0 0 0
30 1 1.104123392353 29.524033467998 1.982965923333 0 0 0
55 1 4.599834824853 27.262058453958 8.037715735833 0 0 0
57 1 1.104123392353 27.262058453958 1.982965923333 0 0 0
139 1 2.26936048991 28.990681807918 4.001215860833 0 0 0
140 1 3.434597727296 28.127767215617 6.019465798333 0 0 0
141 1 4.599834824853 29.524033467998 4.001215860833 0 0 0
143 1 1.104123392353 29.524033467998 6.019465798333 0 0 0
220 1 2.26936053988357 26.465983531576107 8.037715735833002 0 0 0
223 1 2.2693605398835714 26.465983531576107 4.001215860833 0 0 0
225 1 4.599834824853 27.262058453958 4.001215860833 0 0 0
229 1 3.434597727296 30.61037779161 1.982965923333 0 0 0
8 1 5.76507192241 28.990681807918 1.982965923333 0 0 0
10 1 9.260783404883568 26.465983531576107 4.001215860833002 0 0 0
27 1 8.095546257353 27.262058453958 6.019465798333 0 0 0
59 1 9.260783404883568 26.465983531576107 8.037715735832998 0 0 0
145 1 9.26078335491 28.990681807918 4.001215860833 0 0 0
161 1 6.930309159796 30.61037779161 4.001215860833 0 0 0
170 1 6.930309159796 30.61037779161 8.037715735833 0 0 0
215 1 6.930309159796 28.127767215617 4.001215860833 0 0 0
216 1 8.095546257353 29.524033467998 6.019465798333 0 0 0
218 1 5.765071972383568 26.465983531576107 1.982965923333001 0 0 0
219 1 8.095546257353 27.262058453958 1.982965923333 0 0 0
221 1 5.765071972383567 26.465983531576107 6.019465798333 0 0 0
235 1 9.26078335491 28.990681807918 8.037715735833 0 0 0
238 1 6.930309159796 28.127767215617 8.037715735833 0 0 0
239 1 8.095546257353 29.524033467998 1.982965923333 0 0 0
240 1 5.76507192241 28.990681807918 6.019465798333 0 0 0
6 1 12.756494837383565 26.46598353157611 6.019465798332999 0 0 0
18 1 11.591257689853 27.262058453958 4.001215860833 0 0 0
26 1 13.921732024796 28.127767215617 8.037715735833 0 0 0
29 1 13.921732024796 30.61037779161 4.001215860833 0 0 0
37 1 10.426020592296 30.61037779161 6.019465798333 0 0 0
58 1 12.756494837383567 26.465983531576107 1.9829659233330006 0 0 0
61 1 11.591257689853 27.262058453958 8.037715735833 0 0 0
142 1 13.921732024796 28.127767215617 4.001215860833 0 0 0
144 1 12.75649478741 28.990681807918 6.019465798333 0 0 0
167 1 10.426020592296 30.61037779161 1.982965923333 0 0 0
212 1 10.426020592296 28.127767215617 6.019465798333 0 0 0
214 1 11.591257689853 29.524033467998 4.001215860833 0 0 0
232 1 13.921732024796 30.61037779161 8.037715735833 0 0 0
234 1 12.75649478741 28.990681807918 1.982965923333 0 0 0
236 1 10.426020592296 28.127767215617 1.982965923333 0 0 0
237 1 11.591257689853 29.524033467998 8.037715735833 0 0 0

Velocities

14 0 0 0
20 0 0 0
119 0 0 0
162 0 0 0
164 0 0 0
165 0 0 0
171 0 0 0
207 0 0 0
209 0 0 0
210 0 0 0
211 0 0 0
227 0 0 0
230 0 0 0
231 0 0 0
16 0 0 0
21 0 0 0
25 0 0 0
124 0 0 0
125 0 0 0
159 0 0 0
160 0 0 0
163 0 0 0
168 0 0 0
169 0 0 0
172 0 0 0
206 0 0 0
208 0 0 0
228 0 0 0
1 0 0 0
7 0 0 0
11 0 0 0
33 0 0 0
36 0 0 0
120 0 0 0
121 0 0 0
122 0 0 0
123 0 0 0
166 0 0 0
213 0 0 0
233 0 0 0
12 0 0 0
19 0 0 0
28 0 0 0
31 0 0 0
72 0 0 0
74 0 0 0
75 0 0 0
76 0 0 0
106 0 0 0
108 0 0 0
109 0 0 0
201 0 0 0
203 0 0 0
204 0 0 0
5 0 0 0
69 0 0 0
70 0 0 0
71 0 0 0
73 0 0 0
81 0 0 0
130 0 0 0
132 0 0 0
188 0 0 0
190 0 0 0
199 0 0 0
200 0 0 0
32 0 0 0
35 0 0 0
38 0 0 0
68 0 0 0
77 0 0 0
78 0 0 0
79 0 0 0
80 0 0 0
111 0 0 0
112 0 0 0
126 0 0 0
127 0 0 0
129 0 0 0
187 0 0 0
51 0 0 0
53 0 0 0
54 0 0 0
64 0 0 0
110 0 0 0
152 0 0 0
153 0 0 0
154 0 0 0
177 0 0 0
191 0 0 0
195 0 0 0
205 0 0 0
3 0 0 0
40 0 0 0
48 0 0 0
49 0 0 0
50 0 0 0
52 0 0 0
98 0 0 0
107 0 0 0
131 0 0 0
184 0 0 0
185 0 0 0
189 0 0 0
192 0 0 0
202 0 0 0
34 0 0 0
66 0 0 0
96 0 0 0
128 0 0 0
155 0 0 0
156 0 0 0
157 0 0 0
158 0 0 0
179 0 0 0
181 0 0 0
182 0 0 0
183 0 0 0
186 0 0 0
197 0 0 0
63 0 0 0
65 0 0 0
67 0 0 0
89 0 0 0
90 0 0 0
174 0 0 0
175 0 0 0
194 0 0 0
196 0 0 0
198 0 0 0
24 0 0 0
41 0 0 0
43 0 0 0
46 0 0 0
62 0 0 0
88 0 0 0
95 0 0 0
99 0 0 0
101 0 0 0
104 0 0 0
173 0 0 0
193 0 0 0
9 0 0 0
39 0 0 0
42 0 0 0
44 0 0 0
92 0 0 0
94 0 0 0
97 0 0 0
100 0 0 0
102 0 0 0
178 0 0 0
91 0 0 0
93 0 0 0
114 0 0 0
115 0 0 0
116 0 0 0
118 0 0 0
134 0 0 0
135 0 0 0
136 0 0 0
138 0 0 0
176 0 0 0
180 0 0 0
222 0 0 0
224 0 0 0
23 0 0 0
47 0 0 0
83 0 0 0
86 0 0 0
87 0 0 0
105 0 0 0
113 0 0 0
133 0 0 0
147 0 0 0
150 0 0 0
151 0 0 0
217 0 0 0
15 0 0 0
45 0 0 0
56 0 0 0
60 0 0 0
82 0 0 0
84 0 0 0
85 0 0 0
103 0 0 0
117 0 0 0
137 0 0 0
146 0 0 0
148 0 0 0
149 0 0 0
226 0 0 0
2 0 0 0
4 0 0 0
13 0 0 0
17 0 0 0
22 0 0 0
30 0 0 0
55 0 0 0
57 0 0 0
139 0 0 0
140 0 0 0
141 0 0 0
143 0 0 0
220 0 0 0
223 0 0 0
225 0 0 0
229 0 0 0
8 0 0 0
10 0 0 0
27 0 0 0
59 0 0 0
145 0 0 0
161 0 0 0
170 0 0 0
215 0 0 0
216 0 0 0
218 0 0 0
219 0 0 0
221 0 0 0
235 0 0 0
238 0 0 0
239 0 0 0
240 0 0 0
6 0 0 0
18 0 0 0
26 0 0 0
29 0 0 0
37 0 0 0
58 0 0 0
61 0 0 0
142 0 0 0
144 0 0 0
167 0 0 0
212 0 0 0
214 0 0 0
232 0 0 0
234 0 0 0
236 0 0 0
237 0 0 0
