LAMMPS data file via write_data, version 29 Aug 2024, timestep = 47, units = metal

288 atoms
1 atom types

0 11.317147 xlo xhi
0 28.263582 ylo yhi
0 11.317147 zlo zhi

Masses

1 55.8

Atoms # atomic

1 1 0 0 0 0 0 0
2 1 1.414643375 1.414643557616 1.414643375 0 0 0
3 1 0 0 2.82928675 0 0 0
4 1 1.414643375 1.414643557616 4.243930125 0 0 0
9 1 0 2.82928660596 0 0 0 0
10 1 1.4146433750027902 4.396990688734275 1.414643375004818 0 0 0
11 1 0 2.82928660596 2.82928675 0 0 0
12 1 1.4146433750007386 4.396990688745584 4.24393012499841 0 0 0
73 1 2.82928675 0 0 0 0 0
74 1 4.243930125 1.414643557616 1.414643375 0 0 0
75 1 2.82928675 0 2.82928675 0 0 0
76 1 4.243930125 1.414643557616 4.243930125 0 0 0
81 1 2.82928675 2.82928660596 0 0 0 0
82 1 4.243930124998513 4.3969906887371835 1.414643374999828 0 0 0
83 1 2.82928675 2.82928660596 2.82928675 0 0 0
84 1 4.243930125001811 4.396990688747485 4.243930124999827 0 0 0
145 1 5.6585735 0 0 0 0 0
146 1 7.073216875 1.414643557616 1.414643375 0 0 0
147 1 5.6585735 0 2.82928675 0 0 0
148 1 7.073216875 1.414643557616 4.243930125 0 0 0
153 1 5.6585735 2.82928660596 0 0 0 0
154 1 7.073216875001413 4.396990688734284 1.4146433750013772 0 0 0
155 1 5.6585735 2.82928660596 2.82928675 0 0 0
156 1 7.07321687499906 4.396990688745164 4.2439301249985455 0 0 0
217 1 8.48786025 0 0 0 0 0
218 1 9.902503625 1.414643557616 1.414643375 0 0 0
219 1 8.48786025 0 2.82928675 0 0 0
220 1 9.902503625 1.414643557616 4.243930125 0 0 0
225 1 8.48786025 2.82928660596 0 0 0 0
226 1 9.90250362499729 4.396990688737097 1.4146433750020528 0 0 0
227 1 8.48786025 2.82928660596 2.82928675 0 0 0
228 1 9.90250362499839 4.396990688747777 4.243930124998642 0 0 0
17 1 11.31714699998193 5.951850345975594 11.317146999989511 -1 0 -1
18 1 1.4146433749958445 7.510369266166243 1.41464337501995 0 0 0
19 1 9.894307595459395e-12 5.951850345974537 2.829286750008576 0 0 0
20 1 1.4146433750077467 7.510369266160927 4.243930124979757 0 0 0
25 1 11.317146999994874 9.064096018782964 11.317146999995202 -1 0 -1
27 1 11.317146999995865 9.06409601877941 2.8292867499954495 -1 0 0
89 1 2.829286750017984 5.951850345975229 11.317146999987505 0 0 -1
90 1 4.243930125004236 7.5103692661637735 1.414643374977576 0 0 0
91 1 2.8292867499868284 5.9518503459743615 2.8292867500101972 0 0 0
92 1 4.2439301249976635 7.510369266161985 4.2439301250176324 0 0 0
97 1 2.8292867500060175 9.064096018776311 11.317146999969458 0 0 -1
99 1 2.8292867499981944 9.06409601877635 2.829286750029972 0 0 0
161 1 5.658573499985717 5.951850345974905 11.317146999995817 0 0 -1
162 1 7.073216874990891 7.510369266163609 1.4146433750132894 0 0 0
163 1 5.65857350001185 5.951850345974398 2.829286750010795 0 0 0
164 1 7.073216875000529 7.51036926616007 4.243930124978808 0 0 0
169 1 5.658573499998029 9.064096018785056 2.8279600883251987e-12 0 0 0
171 1 5.6585734999977975 9.06409601878289 2.8292867500053815 0 0 0
233 1 8.487860250014368 5.951850345974056 11.317146999986598 0 0 -1
234 1 9.902503625009025 7.51036926616368 1.4146433749819785 0 0 0
235 1 8.487860249991428 5.951850345973271 2.8292867500120034 0 0 0
236 1 9.902503624994056 7.5103692661608115 4.243930125015546 0 0 0
241 1 8.487860250001084 9.064096018781685 11.317146999966404 0 0 -1
243 1 8.487860250008152 9.064096018782754 2.8292867500348855 0 0 0
26 1 1.4146433749721812 10.613804714515561 1.414643374988405 0 0 0
28 1 1.4146433750290845 10.61380471448692 4.243930125024645 0 0 0
33 1 1.0691207591486638e-11 12.165856336951848 3.7402174895088764e-11 0 0 0
34 1 1.4146433749799538 13.716543699116116 1.4146433750164908 0 0 0
35 1 2.9114488597770105e-12 12.165856336955471 2.8292867499447043 0 0 0
36 1 1.414643375029525 13.716543699108868 4.243930124993754 0 0 0
98 1 4.243930125031557 10.613804714508447 1.4146433750073635 0 0 0
100 1 4.243930124988581 10.613804714479091 4.243930124999531 0 0 0
105 1 2.829286749994371 12.165856336957475 11.317146999996927 0 0 -1
106 1 4.243930125023737 13.716543699116617 1.4146433749826843 0 0 0
107 1 2.82928674998869 12.16585633695763 2.829286750000401 0 0 0
108 1 4.243930124982902 13.716543699103589 4.243930125014676 0 0 0
170 1 7.073216874968642 10.613804714511867 1.4146433749774445 0 0 0
172 1 7.0732168750186855 10.613804714482828 4.243930125018655 0 0 0
177 1 5.6585735000073845 12.165856336952409 5.297985560461855e-11 0 0 0
178 1 7.073216874972809 13.716543699122202 1.4146433749998812 0 0 0
179 1 5.658573499996949 12.165856336952546 2.8292867499596808 0 0 0
180 1 7.073216875018592 13.716543699111776 4.243930124993924 0 0 0
242 1 9.902503625027613 10.613804714506816 1.414643375017701 0 0 0
244 1 9.90250362496366 10.613804714477643 4.243930124993832 0 0 0
249 1 8.487860249987568 12.165856336955878 11.3171469999925 0 0 -1
250 1 9.902503625023499 13.716543699117205 1.414643374995572 0 0 0
251 1 8.487860250011474 12.165856336954946 2.8292867500079595 0 0 0
252 1 9.90250362496899 13.716543699105658 4.243930125006199 0 0 0
41 1 11.317146999986555 15.267532049684087 4.86713793450517e-11 -1 0 0
42 1 1.4146433749813077 16.812615821279014 1.4146433750066134 0 0 0
43 1 2.0381388488313116e-11 15.267532049686105 2.8292867499447976 0 0 0
44 1 1.4146433750255816 16.812615821298337 4.24393012498594 0 0 0
113 1 2.829286750014963 15.267532049686093 6.750155989720952e-12 0 0 0
114 1 4.2439301250171 16.812615821283323 1.4146433749948422 0 0 0
115 1 2.8292867499713115 15.267532049687908 2.8292867499921592 0 0 0
116 1 4.243930124967335 16.8126158213061 4.243930124995224 0 0 0
185 1 5.658573499995256 15.26753204968382 6.394825274864188e-11 0 0 0
186 1 7.073216874979841 16.812615821278968 1.414643375004544 0 0 0
187 1 5.658573500025906 15.267532049684457 2.829286749946122 0 0 0
188 1 7.073216875025318 16.812615821299808 4.243930124992043 0 0 0
257 1 8.487860250003225 15.267532049684364 7.224203820736386e-12 0 0 0
258 1 9.902503625021769 16.812615821284073 1.4146433749958942 0 0 0
259 1 8.487860249982395 15.2675320496861 2.8292867499934142 0 0 0
260 1 9.902503624981781 16.812615821305577 4.2439301249937635 0 0 0
49 1 1.3812950783176348e-11 18.351198085430546 2.8807825946154343e-11 0 0 0
50 1 1.4146433749924407 19.893401154820705 1.4146433749845007 0 0 0
51 1 11.317146999987687 18.351198085429875 2.829286749978668 -1 0 0
52 1 1.4146433750091763 19.893401154830517 4.243930125006683 0 0 0
57 1 4.957811938766099e-12 21.441103890773384 1.0164237013097189e-12 0 0 0
59 1 11.317146999994318 21.441103890772116 2.8292867500034298 -1 0 0
121 1 2.8292867499853362 18.35119808542888 11.317146999987573 0 0 -1
122 1 4.243930125004801 19.89340115482266 1.4146433750169323 0 0 0
123 1 2.829286750015111 18.351198085429658 2.8292867500148455 0 0 0
124 1 4.243930124982102 19.893401154833537 4.243930124978407 0 0 0
129 1 2.8292867499945724 21.441103890771355 11.31714699999403 0 0 -1
131 1 2.8292867500083356 21.44110389077024 2.829286750007129 0 0 0
193 1 5.658573500015557 18.351198085429843 2.1846992648967564e-11 0 0 0
194 1 7.073216874994976 19.8934011548195 1.414643374988983 0 0 0
195 1 5.658573499990099 18.351198085430244 2.8292867499712204 0 0 0
196 1 7.073216875012506 19.893401154830435 4.243930125010782 0 0 0
201 1 5.658573500004019 21.4411038907735 11.317146999995607 0 0 -1
203 1 5.658573499994156 21.441103890774148 2.8292867499995236 0 0 0
265 1 8.487860249985285 18.351198085428905 11.31714699999321 0 0 -1
266 1 9.902503625007798 19.893401154822218 1.4146433750134328 0 0 0
267 1 8.487860250007103 18.35119808543006 2.8292867500078525 0 0 0
268 1 9.902503624996228 19.893401154833338 4.243930124980168 0 0 0
273 1 8.48786024999647 21.441103890773622 11.317146999995908 0 0 -1
275 1 8.487860250003184 21.441103890772652 2.8292867500043393 0 0 0
58 1 1.414643374999453 23.1907691502127 1.4146433749987872 0 0 0
60 1 1.4146433749993716 23.190769150212912 4.243930125001179 0 0 0
65 1 0 25.43429539404 0 0 0 0
66 1 1.414643375 26.848937423841 1.414643375 0 0 0
67 1 0 25.43429539404 2.82928675 0 0 0
68 1 1.414643375 26.848937423841 4.243930125 0 0 0
130 1 4.243930125000705 23.190769150213068 1.4146433750011256 0 0 0
132 1 4.24393012499992 23.190769150213452 4.2439301249996495 0 0 0
137 1 2.82928675 25.43429539404 0 0 0 0
138 1 4.243930125 26.848937423841 1.414643375 0 0 0
139 1 2.82928675 25.43429539404 2.82928675 0 0 0
140 1 4.243930125 26.848937423841 4.243930125 0 0 0
202 1 7.0732168750002655 23.190769150213892 1.4146433750000498 0 0 0
204 1 7.07321687500047 23.19076915021432 4.243930125001277 0 0 0
209 1 5.6585735 25.43429539404 0 0 0 0
210 1 7.073216875 26.848937423841 1.414643375 0 0 0
211 1 5.6585735 25.43429539404 2.82928675 0 0 0
212 1 7.073216875 26.848937423841 4.243930125 0 0 0
274 1 9.902503624999591 23.190769150213306 1.414643375000085 0 0 0
276 1 9.902503625000236 23.19076915021373 4.243930125000355 0 0 0
281 1 8.48786025 25.43429539404 0 0 0 0
282 1 9.902503625 26.848937423841 1.414643375 0 0 0
283 1 8.48786025 25.43429539404 2.82928675 0 0 0
284 1 9.902503625 26.848937423841 4.243930125 0 0 0
5 1 0 0 5.6585735 0 0 0
6 1 1.414643375 1.414643557616 7.073216875 0 0 0
7 1 0 0 8.48786025 0 0 0
8 1 1.414643375 1.414643557616 9.902503625 0 0 0
13 1 0 2.82928660596 5.6585735 0 0 0
14 1 1.4146433749989686 4.396990688734656 7.073216875000826 0 0 0
15 1 0 2.82928660596 8.48786025 0 0 0
16 1 1.4146433750009166 4.39699068874526 9.902503624995953 0 0 0
77 1 2.82928675 0 5.6585735 0 0 0
78 1 4.243930125 1.414643557616 7.073216875 0 0 0
79 1 2.82928675 0 8.48786025 0 0 0
80 1 4.243930125 1.414643557616 9.902503625 0 0 0
85 1 2.82928675 2.82928660596 5.6585735 0 0 0
86 1 4.243930125001371 4.396990688737038 7.073216875002768 0 0 0
87 1 2.82928675 2.82928660596 8.48786025 0 0 0
88 1 4.243930124996311 4.3969906887478505 9.90250362499759 0 0 0
149 1 5.6585735 0 5.6585735 0 0 0
150 1 7.073216875 1.414643557616 7.073216875 0 0 0
151 1 5.6585735 0 8.48786025 0 0 0
152 1 7.073216875 1.414643557616 9.902503625 0 0 0
157 1 5.6585735 2.82928660596 5.6585735 0 0 0
158 1 7.0732168750002415 4.396990688734667 7.073216875003271 0 0 0
159 1 5.6585735 2.82928660596 8.48786025 0 0 0
160 1 7.073216875004009 4.396990688744843 9.902503624996818 0 0 0
221 1 8.48786025 0 5.6585735 0 0 0
222 1 9.902503625 1.414643557616 7.073216875 0 0 0
223 1 8.48786025 0 8.48786025 0 0 0
224 1 9.902503625 1.414643557616 9.902503625 0 0 0
229 1 8.48786025 2.82928660596 5.6585735 0 0 0
230 1 9.902503624999422 4.396990688736963 7.073216875000239 0 0 0
231 1 8.48786025 2.82928660596 8.48786025 0 0 0
232 1 9.902503624998772 4.396990688748141 9.90250362499908 0 0 0
21 1 11.317146999985749 5.951850345973752 5.658573499995688 -1 0 0
22 1 1.4146433749900253 7.510369266162685 7.073216875014452 0 0 0
23 1 1.0645558433171027e-11 5.951850345973036 8.48786025000624 0 0 0
24 1 1.4146433750070624 7.5103692661626 9.902503624985846 0 0 0
29 1 11.317146999994792 9.064096018786854 5.658573500004402 -1 0 0
31 1 11.317146999998716 9.064096018784568 8.48786025000497 -1 0 0
93 1 2.8292867500125873 5.951850345973904 5.658573499988731 0 0 0
94 1 4.243930125007838 7.5103692661619625 7.073216874983644 0 0 0
95 1 2.8292867499921504 5.951850345973471 8.487860250013584 0 0 0
96 1 4.243930124986165 7.510369266161185 9.902503625021147 0 0 0
101 1 2.829286750002907 9.064096018787916 5.658573499968852 0 0 0
103 1 2.8292867500078462 9.064096018782426 8.487860250031744 0 0 0
165 1 5.658573499985715 5.9518503459730665 5.658573499991903 0 0 0
166 1 7.073216874991266 7.510369266160035 7.07321687502127 0 0 0
167 1 5.6585735000105775 5.9518503459729 8.487860250001491 0 0 0
168 1 7.07321687501071 7.510369266161713 9.902503624986641 0 0 0
173 1 5.6585734999899895 9.064096018788922 5.658573499991235 0 0 0
175 1 5.658573499996383 9.064096018788053 8.487860250000576 0 0 0
237 1 8.487860250015958 5.951850345972733 5.65857349998984 0 0 0
238 1 9.902503625010873 7.5103692661618595 7.073216874977189 0 0 0
239 1 8.487860249986632 5.951850345972376 8.487860250011565 0 0 0
240 1 9.902503624996058 7.510369266160039 9.902503625025286 0 0 0
245 1 8.48786025001232 9.064096018793316 5.65857349997001 0 0 0
247 1 8.487860249997048 9.064096018788824 8.487860250028719 0 0 0
30 1 1.4146433749750886 10.613804714509373 7.073216874974576 0 0 0
32 1 1.4146433750116707 10.613804714487628 9.902503625012391 0 0 0
37 1 1.4199573251318155e-11 12.16585633695312 5.658573500045622 0 0 0
38 1 1.4146433749669458 13.716543699123747 7.07321687500067 0 0 0
39 1 7.58504370423907e-12 12.165856336955272 8.487860249972286 0 0 0
40 1 1.41464337502012 13.716543699105774 9.9025036249891 0 0 0
102 1 4.243930125023812 10.613804714501915 7.073216875014476 0 0 0
104 1 4.243930124979606 10.613804714480304 9.902503624978637 0 0 0
109 1 2.829286749985579 12.165856336950853 5.6585734999837936 0 0 0
110 1 4.243930125032091 13.716543699121448 7.073216874995327 0 0 0
111 1 2.8292867500061387 12.165856336954043 8.487860250018896 0 0 0
112 1 4.243930124966774 13.716543699104562 9.902503625007318 0 0 0
174 1 7.073216874985999 10.613804714505726 7.073216874992742 0 0 0
176 1 7.073216875024901 10.613804714483567 9.90250362501116 0 0 0
181 1 5.658573499996483 12.165856336953704 5.6585735000250486 0 0 0
182 1 7.073216874973855 13.716543699129826 7.073216875012197 0 0 0
183 1 5.658573499993532 12.165856336952329 8.48786024996231 0 0 0
184 1 7.073216875032101 13.71654369910865 9.902503624994011 0 0 0
246 1 9.902503625015104 10.613804714500317 7.073216875001136 0 0 0
248 1 9.902503624983819 10.613804714478867 9.902503624987354 0 0 0
253 1 8.487860250003742 12.165856336949231 5.658573499987504 0 0 0
254 1 9.902503625027135 13.716543699122004 7.073216874985322 0 0 0
255 1 8.48786024999276 12.165856336951354 8.487860250012055 0 0 0
256 1 9.90250362498102 13.716543699106634 9.902503625012923 0 0 0
45 1 11.31714699999824 15.267532049682224 5.658573500065909 -1 0 0
46 1 1.4146433749734975 16.81261582127887 7.073216875008848 0 0 0
47 1 2.083867325592809e-11 15.267532049685327 8.487860249940624 0 0 0
48 1 1.4146433750288567 16.81261582129938 9.902503624998598 0 0 0
117 1 2.8292867500002243 15.267532049683538 5.658573500005806 0 0 0
118 1 4.243930125025938 16.81261582128492 7.073216874997365 0 0 0
119 1 2.8292867499826415 15.267532049685583 8.4878602499953 0 0 0
120 1 4.2439301249695 16.81261582130473 9.902503625012582 0 0 0
189 1 5.6585734999994886 15.267532049681927 5.658573500061551 0 0 0
190 1 7.07321687496785 16.812615821278843 7.073216875000874 0 0 0
191 1 5.658573500022411 15.267532049683698 8.487860249928383 0 0 0
192 1 7.073216875023587 16.81261582130083 9.902503625002563 0 0 0
261 1 8.487860250002052 15.267532049681826 5.658573500010242 0 0 0
262 1 9.90250362503273 16.812615821285647 7.073216875003366 0 0 0
263 1 8.487860249974101 15.267532049683764 8.487860249989115 0 0 0
264 1 9.902503624978078 16.812615821304227 9.902503625006986 0 0 0
53 1 1.1858958259836072e-11 18.35119808542948 5.658573500029003 0 0 0
54 1 1.4146433749931986 19.893401154819255 7.073216874992196 0 0 0
55 1 11.31714699998433 18.35119808542985 8.487860249963536 -1 0 0
56 1 1.4146433750126335 19.893401154831086 9.902503625016616 0 0 0
61 1 2.6965096822095802e-12 21.441103890776105 5.658573499998005 0 0 0
63 1 11.317146999992802 21.44110389077325 8.487860249997544 -1 0 0
125 1 2.8292867499891328 18.35119808543097 5.658573499991727 0 0 0
126 1 4.243930125006359 19.893401154821653 7.073216875013312 0 0 0
127 1 2.8292867500071925 18.351198085430557 8.487860250005873 0 0 0
128 1 4.243930124991327 19.893401154833327 9.902503624991354 0 0 0
133 1 2.829286749998248 21.44110389077483 5.658573499995387 0 0 0
135 1 2.8292867500028893 21.441103890773594 8.487860250003456 0 0 0
197 1 5.658573500021715 18.35119808542877 5.658573500039098 0 0 0
198 1 7.073216874987788 19.893401154818047 7.073216874982814 0 0 0
199 1 5.658573499992182 18.351198085430198 8.48786024996783 0 0 0
200 1 7.073216875004507 19.893401154831007 9.902503625017431 0 0 0
205 1 5.658573500006511 21.441103890776226 5.658573500003627 0 0 0
207 1 5.658573499995541 21.441103890775288 8.487860250001233 0 0 0
269 1 8.48786024997731 18.351198085430966 5.658573499991918 0 0 0
270 1 9.902503625012669 19.89340115482123 7.073216875021266 0 0 0
271 1 8.487860250016283 18.351198085430994 8.48786025000701 0 0 0
272 1 9.90250362499155 19.8934011548331 9.902503624985131 0 0 0
277 1 8.487860249992549 21.44110389077709 5.658573499994349 0 0 0
279 1 8.487860250008747 21.441103890776 8.487860250005415 0 0 0
62 1 1.4146433750002958 23.1907691502142 7.0732168749997015 0 0 0
64 1 1.4146433750003218 23.190769150212713 9.902503625000325 0 0 0
69 1 0 25.43429539404 5.6585735 0 0 0
70 1 1.414643375 26.848937423841 7.073216875 0 0 0
71 1 0 25.43429539404 8.48786025 0 0 0
72 1 1.414643375 26.848937423841 9.902503625 0 0 0
134 1 4.243930125000232 23.19076915021464 7.073216875000038 0 0 0
136 1 4.243930125001018 23.190769150213107 9.90250362499918 0 0 0
141 1 2.82928675 25.43429539404 5.6585735 0 0 0
142 1 4.243930125 26.848937423841 7.073216875 0 0 0
143 1 2.82928675 25.43429539404 8.48786025 0 0 0
144 1 4.243930125 26.848937423841 9.902503625 0 0 0
206 1 7.073216874999896 23.1907691502154 7.073216874998712 0 0 0
208 1 7.073216874999582 23.190769150214088 9.902503624999962 0 0 0
213 1 5.6585735 25.43429539404 5.6585735 0 0 0
214 1 7.073216875 26.848937423841 7.073216875 0 0 0
215 1 5.6585735 25.43429539404 8.48786025 0 0 0
216 1 7.073216875 26.848937423841 9.902503625 0 0 0
278 1 9.902503624999563 23.190769150214848 7.07321687500086 0 0 0
280 1 9.902503624999081 23.190769150213402 9.902503624998701 0 0 0
285 1 8.48786025 25.43429539404 5.6585735 0 0 0
286 1 9.902503625 26.848937423841 7.073216875 0 0 0
287 1 8.48786025 25.43429539404 8.48786025 0 0 0
288 1 9.902503625 26.848937423841 9.902503625 0 0 0

Velocities

1 0 0 0
2 0 0 0
3 0 0 0
4 0 0 0
9 0 0 0
10 0 0 0
11 0 0 0
12 0 0 0
73 0 0 0
74 0 0 0
75 0 0 0
76 0 0 0
81 0 0 0
82 0 0 0
83 0 0 0
84 0 0 0
145 0 0 0
146 0 0 0
147 0 0 0
148 0 0 0
153 0 0 0
154 0 0 0
155 0 0 0
156 0 0 0
217 0 0 0
218 0 0 0
219 0 0 0
220 0 0 0
225 0 0 0
226 0 0 0
227 0 0 0
228 0 0 0
17 0 0 0
18 0 0 0
19 0 0 0
20 0 0 0
25 0 0 0
27 0 0 0
89 0 0 0
90 0 0 0
91 0 0 0
92 0 0 0
97 0 0 0
99 0 0 0
161 0 0 0
162 0 0 0
163 0 0 0
164 0 0 0
169 0 0 0
171 0 0 0
233 0 0 0
234 0 0 0
235 0 0 0
236 0 0 0
241 0 0 0
243 0 0 0
26 0 0 0
28 0 0 0
33 0 0 0
34 0 0 0
35 0 0 0
36 0 0 0
98 0 0 0
100 0 0 0
105 0 0 0
106 0 0 0
107 0 0 0
108 0 0 0
170 0 0 0
172 0 0 0
177 0 0 0
178 0 0 0
179 0 0 0
180 0 0 0
242 0 0 0
244 0 0 0
249 0 0 0
250 0 0 0
251 0 0 0
252 0 0 0
41 0 0 0
42 0 0 0
43 0 0 0
44 0 0 0
113 0 0 0
114 0 0 0
115 0 0 0
116 0 0 0
185 0 0 0
186 0 0 0
187 0 0 0
188 0 0 0
257 0 0 0
258 0 0 0
259 0 0 0
260 0 0 0
49 0 0 0
50 0 0 0
51 0 0 0
52 0 0 0
57 0 0 0
59 0 0 0
121 0 0 0
122 0 0 0
123 0 0 0
124 0 0 0
129 0 0 0
131 0 0 0
193 0 0 0
194 0 0 0
195 0 0 0
196 0 0 0
201 0 0 0
203 0 0 0
265 0 0 0
266 0 0 0
267 0 0 0
268 0 0 0
273 0 0 0
275 0 0 0
58 0 0 0
60 0 0 0
65 0 0 0
66 0 0 0
67 0 0 0
68 0 0 0
130 0 0 0
132 0 0 0
137 0 0 0
138 0 0 0
139 0 0 0
140 0 0 0
202 0 0 0
204 0 0 0
209 0 0 0
210 0 0 0
211 0 0 0
212 0 0 0
274 0 0 0
276 0 0 0
281 0 0 0
282 0 0 0
283 0 0 0
284 0 0 0
5 0 0 0
6 0 0 0
7 0 0 0
8 0 0 0
13 0 0 0
14 0 0 0
15 0 0 0
16 0 0 0
77 0 0 0
78 0 0 0
79 0 0 0
80 0 0 0
85 0 0 0
86 0 0 0
87 0 0 0
88 0 0 0
149 0 0 0
150 0 0 0
151 0 0 0
152 0 0 0
157 0 0 0
158 0 0 0
159 0 0 0
160 0 0 0
221 0 0 0
222 0 0 0
223 0 0 0
224 0 0 0
229 0 0 0
230 0 0 0
231 0 0 0
232 0 0 0
21 0 0 0
22 0 0 0
23 0 0 0
24 0 0 0
29 0 0 0
31 0 0 0
93 0 0 0
94 0 0 0
95 0 0 0
96 0 0 0
101 0 0 0
103 0 0 0
165 0 0 0
166 0 0 0
167 0 0 0
168 0 0 0
173 0 0 0
175 0 0 0
237 0 0 0
238 0 0 0
239 0 0 0
240 0 0 0
245 0 0 0
247 0 0 0
30 0 0 0
32 0 0 0
37 0 0 0
38 0 0 0
39 0 0 0
40 0 0 0
102 0 0 0
104 0 0 0
109 0 0 0
110 0 0 0
111 0 0 0
112 0 0 0
174 0 0 0
176 0 0 0
181 0 0 0
182 0 0 0
183 0 0 0
184 0 0 0
246 0 0 0
248 0 0 0
253 0 0 0
254 0 0 0
255 0 0 0
256 0 0 0
45 0 0 0
46 0 0 0
47 0 0 0
48 0 0 0
117 0 0 0
118 0 0 0
119 0 0 0
120 0 0 0
189 0 0 0
190 0 0 0
191 0 0 0
192 0 0 0
261 0 0 0
262 0 0 0
263 0 0 0
264 0 0 0
53 0 0 0
54 0 0 0
55 0 0 0
56 0 0 0
61 0 0 0
63 0 0 0
125 0 0 0
126 0 0 0
127 0 0 0
128 0 0 0
133 0 0 0
135 0 0 0
197 0 0 0
198 0 0 0
199 0 0 0
200 0 0 0
205 0 0 0
207 0 0 0
269 0 0 0
270 0 0 0
271 0 0 0
272 0 0 0
277 0 0 0
279 0 0 0
62 0 0 0
64 0 0 0
69 0 0 0
70 0 0 0
71 0 0 0
72 0 0 0
134 0 0 0
136 0 0 0
141 0 0 0
142 0 0 0
143 0 0 0
144 0 0 0
206 0 0 0
208 0 0 0
213 0 0 0
214 0 0 0
215 0 0 0
216 0 0 0
278 0 0 0
280 0 0 0
285 0 0 0
286 0 0 0
287 0 0 0
288 0 0 0
