LAMMPS data file via write_data, version 29 Aug 2024, timestep = 18, units = metal

288 atoms
1 atom types

0 11.317147 xlo xhi
0 27.363582 ylo yhi
0 11.317147 zlo zhi

Masses

1 55.8

Atoms # atomic

1 1 0 0 0 0 0 0
2 1 1.414643375 1.414643557616 1.414643375 0 0 0
3 1 0 0 2.82928675 0 0 0
4 1 1.414643375 1.414643557616 4.243930125 0 0 0
9 1 0 2.82928660596 0 0 0 0
10 1 1.4146433749999372 4.381104509387944 1.4146433749999956 0 0 0
11 1 0 2.82928660596 2.82928675 0 0 0
12 1 1.414643375000012 4.381104509387928 4.243930125000012 0 0 0
73 1 2.82928675 0 0 0 0 0
74 1 4.243930125 1.414643557616 1.414643375 0 0 0
75 1 2.82928675 0 2.82928675 0 0 0
76 1 4.243930125 1.414643557616 4.243930125 0 0 0
81 1 2.82928675 2.82928660596 0 0 0 0
82 1 4.243930125000062 4.381104509387954 1.414643374999941 0 0 0
83 1 2.82928675 2.82928660596 2.82928675 0 0 0
84 1 4.243930124999977 4.381104509387927 4.243930125000069 0 0 0
145 1 5.6585735 0 0 0 0 0
146 1 7.073216875 1.414643557616 1.414643375 0 0 0
147 1 5.6585735 0 2.82928675 0 0 0
148 1 7.073216875 1.414643557616 4.243930125 0 0 0
153 1 5.6585735 2.82928660596 0 0 0 0
154 1 7.07321687499994 4.3811045093879395 1.414643374999987 0 0 0
155 1 5.6585735 2.82928660596 2.82928675 0 0 0
156 1 7.073216875000027 4.381104509387927 4.24393012500001 0 0 0
217 1 8.48786025 0 0 0 0 0
218 1 9.902503625 1.414643557616 1.414643375 0 0 0
219 1 8.48786025 0 2.82928675 0 0 0
220 1 9.902503625 1.414643557616 4.243930125 0 0 0
225 1 8.48786025 2.82928660596 0 0 0 0
226 1 9.902503625000062 4.381104509387952 1.4146433749999265 0 0 0
227 1 8.48786025 2.82928660596 2.82928675 0 0 0
228 1 9.902503624999978 4.381104509387923 4.243930125000065 0 0 0
17 1 11.317146999999938 5.924937095226541 1.1081078346629823e-13 -1 0 0
18 1 1.4146433749999425 7.47200980818023 1.414643375000101 0 0 0
19 1 5.375833947418106e-14 5.924937095226604 2.8292867499999055 0 0 0
20 1 1.4146433750000704 7.47200980818026 4.243930124999918 0 0 0
25 1 11.317146999999952 9.018508039897114 5.106664912181874e-14 -1 0 0
27 1 4.3706518861852576e-14 9.018508039897073 2.8292867499999663 0 0 0
89 1 2.8292867500000685 5.924937095226568 11.317146999999983 0 0 -1
90 1 4.243930125000036 7.472009808180231 1.4146433749999936 0 0 0
91 1 2.829286749999973 5.924937095226626 2.8292867500000263 0 0 0
92 1 4.243930124999922 7.472009808180259 4.24393012500001 0 0 0
97 1 2.829286750000055 9.01850803989711 11.317146999999945 0 0 -1
99 1 2.829286749999973 9.018508039897059 2.82928675000007 0 0 0
161 1 5.658573499999941 5.924937095226537 8.916221096788292e-14 0 0 0
162 1 7.073216874999969 7.472009808180241 1.4146433750000875 0 0 0
163 1 5.65857350000002 5.92493709522659 2.8292867499999086 0 0 0
164 1 7.073216875000094 7.4720098081802755 4.243930124999922 0 0 0
169 1 5.658573499999951 9.01850803989712 3.701717176619431e-14 0 0 0
171 1 5.65857350000003 9.018508039897077 2.829286749999976 0 0 0
233 1 8.487860250000066 5.924937095226576 4.153341786743728e-15 0 0 0
234 1 9.902503625000046 7.472009808180237 1.4146433749999852 0 0 0
235 1 8.487860249999958 5.924937095226626 2.8292867500000236 0 0 0
236 1 9.902503624999923 7.47200980818027 4.24393012500001 0 0 0
241 1 8.487860250000049 9.018508039897108 11.317146999999954 0 0 -1
243 1 8.487860249999954 9.018508039897055 2.8292867500000805 0 0 0
26 1 1.414643374999943 10.55898200444823 1.414643374999991 0 0 0
28 1 1.4146433750000136 10.558982004448218 4.243930125000009 0 0 0
33 1 11.317146999999983 12.10024743802803 4.561028737482272e-14 -1 0 0
34 1 1.41464337499999 13.645105674321709 1.414643375000005 0 0 0
35 1 2.5711477542018033e-14 12.100247438028056 2.8292867499999783 0 0 0
36 1 1.4146433749999971 13.645105674321709 4.243930124999998 0 0 0
98 1 4.243930125000059 10.558982004448232 1.414643374999931 0 0 0
100 1 4.243930124999972 10.55898200444821 4.243930125000074 0 0 0
105 1 2.829286750000028 12.100247438028033 11.317146999999984 0 0 -1
106 1 4.243930125000025 13.645105674321712 1.414643374999974 0 0 0
107 1 2.829286749999978 12.100247438028054 2.8292867500000214 0 0 0
108 1 4.243930124999994 13.645105674321702 4.243930125000026 0 0 0
170 1 7.073216874999963 10.558982004448223 1.414643374999991 0 0 0
172 1 7.073216875000049 10.558982004448207 4.243930125000008 0 0 0
177 1 5.658573499999965 12.100247438028033 4.3646488741447124e-14 0 0 0
178 1 7.073216875000007 13.645105674321707 1.4146433750000091 0 0 0
179 1 5.658573500000005 12.100247438028052 2.8292867499999717 0 0 0
180 1 7.073216875000029 13.645105674321703 4.243930124999987 0 0 0
242 1 9.902503625000044 10.558982004448232 1.4146433749999239 0 0 0
244 1 9.90250362499997 10.558982004448213 4.2439301250000625 0 0 0
249 1 8.487860250000024 12.10024743802804 4.71033509073024e-16 0 0 0
250 1 9.902503625000005 13.645105674321696 1.4146433749999867 0 0 0
251 1 8.48786024999998 12.100247438028061 2.8292867500000267 0 0 0
252 1 9.902503624999989 13.645105674321709 4.243930125000011 0 0 0
41 1 3.166816283500393e-15 15.191931663543343 5.630976379204047e-15 0 0 0
42 1 1.4146433750000107 16.739328923466733 1.4146433750000051 0 0 0
43 1 1.1045318567201399e-14 15.191931663543352 2.829286750000002 0 0 0
44 1 1.4146433749999898 16.739328923466733 4.243930125000008 0 0 0
113 1 2.8292867499999983 15.191931663543347 4.017846535278922e-15 0 0 0
114 1 4.243930125000007 16.739328923466733 1.4146433749999965 0 0 0
115 1 2.82928674999998 15.19193166354336 2.8292867499999916 0 0 0
116 1 4.243930125000011 16.739328923466736 4.2439301250000065 0 0 0
185 1 5.65857349999998 15.191931663543354 1.1502097666038322e-14 0 0 0
186 1 7.073216875000014 16.739328923466747 1.414643374999999 0 0 0
187 1 5.658573499999999 15.19193166354335 2.829286749999989 0 0 0
188 1 7.073216875000012 16.73932892346674 4.243930125000011 0 0 0
257 1 8.487860249999999 15.191931663543352 3.348306458256982e-15 0 0 0
258 1 9.902503624999985 16.739328923466744 1.414643375000003 0 0 0
259 1 8.487860249999997 15.191931663543354 2.8292867500000054 0 0 0
260 1 9.90250362499999 16.73932892346674 4.243930124999991 0 0 0
49 1 2.239180510997282e-15 18.28442225910914 5.494687990755587e-15 0 0 0
50 1 1.414643375000006 19.82893902454018 1.414643374999989 0 0 0
51 1 11.317146999999993 18.284422259109128 2.829286750000002 -1 0 0
52 1 1.4146433750000005 19.828939024540183 4.243930125000013 0 0 0
57 1 0 21.3734134993486 4.906514708568963e-15 0 0 0
59 1 0 21.3734134993486 2.829286749999993 0 0 0
121 1 2.829286749999991 18.28442225910914 1.6754938859047727e-14 0 0 0
122 1 4.243930124999987 19.82893902454019 1.414643374999989 0 0 0
123 1 2.829286750000002 18.284422259109135 2.82928674999998 0 0 0
124 1 4.243930125000009 19.82893902454018 4.243930125000001 0 0 0
129 1 2.8292867500000045 21.373413499348597 1.0451933763366399e-14 0 0 0
131 1 2.82928674999999 21.3734134993486 2.8292867499999916 0 0 0
193 1 5.658573500000002 18.28442225910913 2.4116005361632147e-15 0 0 0
194 1 7.0732168750000195 19.82893902454018 1.414643374999987 0 0 0
195 1 5.6585734999999895 18.284422259109128 2.829286749999999 0 0 0
196 1 7.073216875000002 19.828939024540187 4.243930125000021 0 0 0
201 1 5.658573500000001 21.373413499348597 11.317146999999995 0 0 -1
203 1 5.658573499999999 21.373413499348597 2.82928675 0 0 0
265 1 8.48786025 18.28442225910913 2.821814551084167e-14 0 0 0
266 1 9.902503624999982 19.828939024540187 1.414643374999989 0 0 0
267 1 8.48786025 18.284422259109128 2.82928674999998 0 0 0
268 1 9.902503624999985 19.82893902454018 4.243930125000011 0 0 0
273 1 8.487860249999999 21.373413499348597 1.9351537878142607e-14 0 0 0
275 1 8.487860250000006 21.373413499348597 2.829286749999992 0 0 0
58 1 1.4146433750000051 22.921638219155653 1.4146433749999978 0 0 0
60 1 1.414643375000005 22.921638219155653 4.2439301249999986 0 0 0
65 1 0 24.53429539404 0 0 0 0
66 1 1.414643375 25.948937423841 1.414643375 0 0 0
67 1 0 24.53429539404 2.82928675 0 0 0
68 1 1.414643375 25.948937423841 4.243930125 0 0 0
130 1 4.243930124999996 22.921638219155653 1.4146433749999974 0 0 0
132 1 4.243930125000009 22.921638219155653 4.243930124999998 0 0 0
137 1 2.82928675 24.53429539404 0 0 0 0
138 1 4.243930125 25.948937423841 1.414643375 0 0 0
139 1 2.82928675 24.53429539404 2.82928675 0 0 0
140 1 4.243930125 25.948937423841 4.243930125 0 0 0
202 1 7.073216875000003 22.921638219155646 1.414643374999992 0 0 0
204 1 7.073216875000002 22.921638219155657 4.243930125 0 0 0
209 1 5.6585735 24.53429539404 0 0 0 0
210 1 7.073216875 25.948937423841 1.414643375 0 0 0
211 1 5.6585735 24.53429539404 2.82928675 0 0 0
212 1 7.073216875 25.948937423841 4.243930125 0 0 0
274 1 9.902503625000001 22.92163821915565 1.4146433749999938 0 0 0
276 1 9.902503624999996 22.921638219155657 4.243930124999999 0 0 0
281 1 8.48786025 24.53429539404 0 0 0 0
282 1 9.902503625 25.948937423841 1.414643375 0 0 0
283 1 8.48786025 24.53429539404 2.82928675 0 0 0
284 1 9.902503625 25.948937423841 4.243930125 0 0 0
5 1 0 0 5.6585735 0 0 0
6 1 1.414643375 1.414643557616 7.073216875 0 0 0
7 1 0 0 8.48786025 0 0 0
8 1 1.414643375 1.414643557616 9.902503625 0 0 0
13 1 0 2.82928660596 5.6585735 0 0 0
14 1 1.4146433749999459 4.381104509387939 7.0732168750000035 0 0 0
15 1 0 2.82928660596 8.48786025 0 0 0
16 1 1.414643375000012 4.3811045093879155 9.902503625000005 0 0 0
77 1 2.82928675 0 5.6585735 0 0 0
78 1 4.243930125 1.414643557616 7.073216875 0 0 0
79 1 2.82928675 0 8.48786025 0 0 0
80 1 4.243930125 1.414643557616 9.902503625 0 0 0
85 1 2.82928675 2.82928660596 5.6585735 0 0 0
86 1 4.243930125000043 4.3811045093879395 7.073216874999931 0 0 0
87 1 2.82928675 2.82928660596 8.48786025 0 0 0
88 1 4.243930124999991 4.381104509387923 9.902503625000076 0 0 0
149 1 5.6585735 0 5.6585735 0 0 0
150 1 7.073216875 1.414643557616 7.073216875 0 0 0
151 1 5.6585735 0 8.48786025 0 0 0
152 1 7.073216875 1.414643557616 9.902503625 0 0 0
157 1 5.6585735 2.82928660596 5.6585735 0 0 0
158 1 7.073216874999966 4.3811045093879395 7.073216875000012 0 0 0
159 1 5.6585735 2.82928660596 8.48786025 0 0 0
160 1 7.073216874999998 4.381104509387912 9.902503625 0 0 0
221 1 8.48786025 0 5.6585735 0 0 0
222 1 9.902503625 1.414643557616 7.073216875 0 0 0
223 1 8.48786025 0 8.48786025 0 0 0
224 1 9.902503625 1.414643557616 9.902503625 0 0 0
229 1 8.48786025 2.82928660596 5.6585735 0 0 0
230 1 9.902503625000042 4.381104509387934 7.07321687499994 0 0 0
231 1 8.48786025 2.82928660596 8.48786025 0 0 0
232 1 9.902503624999994 4.38110450938791 9.902503625000076 0 0 0
21 1 11.317146999999961 5.924937095226546 5.658573500000065 -1 0 0
22 1 1.4146433749999647 7.472009808180236 7.073216875000121 0 0 0
23 1 6.520465209474855e-14 5.924937095226608 8.487860249999917 0 0 0
24 1 1.4146433750000766 7.472009808180265 9.902503624999865 0 0 0
29 1 11.317146999999961 9.018508039897121 5.658573500000003 -1 0 0
31 1 5.540733236750551e-14 9.018508039897077 8.487860249999981 0 0 0
93 1 2.829286750000059 5.92493709522657 5.658573499999956 0 0 0
94 1 4.243930125000007 7.472009808180227 7.07321687500002 0 0 0
95 1 2.82928674999995 5.92493709522664 8.487860250000026 0 0 0
96 1 4.243930124999922 7.472009808180257 9.902503624999992 0 0 0
101 1 2.8292867500000587 9.018508039897107 5.658573499999912 0 0 0
103 1 2.829286749999961 9.01850803989706 8.487860250000072 0 0 0
165 1 5.65857349999994 5.924937095226541 5.658573500000057 0 0 0
166 1 7.073216874999984 7.47200980818023 7.073216875000136 0 0 0
167 1 5.658573500000062 5.92493709522661 8.48786024999993 0 0 0
168 1 7.073216875000068 7.472009808180267 9.902503624999866 0 0 0
173 1 5.658573499999947 9.018508039897126 5.658573499999996 0 0 0
175 1 5.658573500000062 9.018508039897078 8.487860249999986 0 0 0
237 1 8.487860250000038 5.9249370952265705 5.658573499999965 0 0 0
238 1 9.902503625000037 7.472009808180229 7.073216875000025 0 0 0
239 1 8.487860249999931 5.924937095226643 8.487860249999999 0 0 0
240 1 9.902503624999929 7.47200980818027 9.902503624999989 0 0 0
245 1 8.487860250000033 9.018508039897101 5.658573499999888 0 0 0
247 1 8.487860249999928 9.01850803989706 8.487860250000075 0 0 0
30 1 1.4146433749999496 10.55898200444824 7.07321687500002 0 0 0
32 1 1.4146433750000251 10.558982004448225 9.902503624999976 0 0 0
37 1 11.317146999999983 12.100247438028038 5.658573500000007 -1 0 0
38 1 1.4146433749999725 13.645105674321716 7.0732168750000195 0 0 0
39 1 2.0877559342928093e-14 12.100247438028042 8.487860249999976 0 0 0
40 1 1.414643375000016 13.645105674321718 9.902503624999976 0 0 0
102 1 4.2439301250000305 10.558982004448243 7.0732168749999556 0 0 0
104 1 4.243930124999963 10.558982004448227 9.902503625000039 0 0 0
109 1 2.829286750000035 12.100247438028038 5.65857349999997 0 0 0
110 1 4.243930125000008 13.645105674321709 7.073216874999991 0 0 0
111 1 2.8292867499999925 12.10024743802804 8.487860250000026 0 0 0
112 1 4.243930124999979 13.645105674321716 9.902503625000003 0 0 0
174 1 7.073216874999967 10.558982004448232 7.0732168750000355 0 0 0
176 1 7.0732168750000355 10.558982004448211 9.902503624999957 0 0 0
181 1 5.658573499999963 12.100247438028038 5.658573500000018 0 0 0
182 1 7.073216875000006 13.64510567432171 7.073216875000023 0 0 0
183 1 5.658573500000013 12.100247438028045 8.487860249999972 0 0 0
184 1 7.073216875000015 13.645105674321718 9.902503624999964 0 0 0
246 1 9.90250362500005 10.558982004448241 7.073216874999958 0 0 0
248 1 9.902503624999964 10.558982004448213 9.90250362500004 0 0 0
253 1 8.487860250000015 12.100247438028044 5.658573499999969 0 0 0
254 1 9.902503625000008 13.64510567432171 7.0732168750000035 0 0 0
255 1 8.487860249999976 12.100247438028052 8.487860250000008 0 0 0
256 1 9.90250362499999 13.64510567432171 9.902503624999996 0 0 0
45 1 1.1032079309974891e-14 15.19193166354334 5.6585734999999975 0 0 0
46 1 1.4146433750000027 16.739328923466736 7.073216875000003 0 0 0
47 1 7.762521608529313e-15 15.19193166354334 8.487860249999988 0 0 0
48 1 1.4146433750000122 16.739328923466736 9.902503624999996 0 0 0
117 1 2.829286750000006 15.19193166354335 5.658573499999997 0 0 0
118 1 4.243930124999997 16.73932892346673 7.073216875000003 0 0 0
119 1 2.829286750000002 15.191931663543345 8.487860250000015 0 0 0
120 1 4.2439301250000065 16.73932892346673 9.902503624999992 0 0 0
189 1 5.658573499999988 15.191931663543352 5.658573499999997 0 0 0
190 1 7.073216875000014 16.739328923466736 7.073216875000002 0 0 0
191 1 5.658573500000007 15.191931663543345 8.487860249999999 0 0 0
192 1 7.073216874999999 16.739328923466736 9.902503624999985 0 0 0
261 1 8.487860249999992 15.191931663543347 5.658573499999995 0 0 0
262 1 9.902503624999987 16.739328923466744 7.073216875000007 0 0 0
263 1 8.487860249999986 15.191931663543345 8.487860250000006 0 0 0
264 1 9.902503624999984 16.73932892346674 9.90250362499999 0 0 0
53 1 1.1830935041075598e-14 18.28442225910913 5.658573500000002 0 0 0
54 1 1.414643374999999 19.828939024540187 7.073216874999983 0 0 0
55 1 11.317146999999995 18.284422259109135 8.487860249999997 -1 0 0
56 1 1.414643374999993 19.828939024540187 9.902503625000007 0 0 0
61 1 11.317146999999993 21.3734134993486 5.658573500000002 -1 0 0
63 1 11.317146999999993 21.37341349934859 8.48786025 -1 0 0
125 1 2.829286749999993 18.28442225910913 5.658573500000008 0 0 0
126 1 4.243930125000007 19.828939024540176 7.073216874999992 0 0 0
127 1 2.8292867499999903 18.28442225910912 8.487860249999997 0 0 0
128 1 4.243930125000017 19.828939024540183 9.902503625000007 0 0 0
133 1 2.829286749999986 21.373413499348594 5.658573500000002 0 0 0
135 1 2.8292867500000067 21.3734134993486 8.487860249999994 0 0 0
197 1 5.658573500000001 18.28442225910914 5.658573499999991 0 0 0
198 1 7.073216875000005 19.828939024540176 7.073216874999988 0 0 0
199 1 5.658573499999998 18.284422259109135 8.487860250000008 0 0 0
200 1 7.073216874999982 19.82893902454018 9.902503625000007 0 0 0
205 1 5.65857350000001 21.373413499348594 5.6585734999999895 0 0 0
207 1 5.658573500000002 21.37341349934859 8.487860250000011 0 0 0
269 1 8.487860249999994 18.28442225910913 5.6585734999999975 0 0 0
270 1 9.902503625000005 19.828939024540194 7.073216875000002 0 0 0
271 1 8.487860250000004 18.28442225910912 8.487860249999997 0 0 0
272 1 9.902503625000008 19.828939024540183 9.902503625000001 0 0 0
277 1 8.487860250000004 21.373413499348594 5.658573500000005 0 0 0
279 1 8.487860250000006 21.373413499348594 8.487860249999985 0 0 0
62 1 1.414643374999999 22.921638219155653 7.073216874999998 0 0 0
64 1 1.414643374999989 22.92163821915566 9.902503625000007 0 0 0
69 1 0 24.53429539404 5.6585735 0 0 0
70 1 1.414643375 25.948937423841 7.073216875 0 0 0
71 1 0 24.53429539404 8.48786025 0 0 0
72 1 1.414643375 25.948937423841 9.902503625 0 0 0
134 1 4.243930124999998 22.921638219155657 7.073216875000007 0 0 0
136 1 4.243930125 22.921638219155653 9.902503625000012 0 0 0
141 1 2.82928675 24.53429539404 5.6585735 0 0 0
142 1 4.243930125 25.948937423841 7.073216875 0 0 0
143 1 2.82928675 24.53429539404 8.48786025 0 0 0
144 1 4.243930125 25.948937423841 9.902503625 0 0 0
206 1 7.0732168750000035 22.92163821915566 7.07321687499999 0 0 0
208 1 7.073216874999997 22.921638219155657 9.902503625000001 0 0 0
213 1 5.6585735 24.53429539404 5.6585735 0 0 0
214 1 7.073216875 25.948937423841 7.073216875 0 0 0
215 1 5.6585735 24.53429539404 8.48786025 0 0 0
216 1 7.073216875 25.948937423841 9.902503625 0 0 0
278 1 9.902503625000003 22.92163821915566 7.073216874999997 0 0 0
280 1 9.902503625000012 22.921638219155657 9.902503625000007 0 0 0
285 1 8.48786025 24.53429539404 5.6585735 0 0 0
286 1 9.902503625 25.948937423841 7.073216875 0 0 0
287 1 8.48786025 24.53429539404 8.48786025 0 0 0
288 1 9.902503625 25.948937423841 9.902503625 0 0 0

Velocities

1 0 0 0
2 0 0 0
3 0 0 0
4 0 0 0
9 0 0 0
10 0 0 0
11 0 0 0
12 0 0 0
73 0 0 0
74 0 0 0
75 0 0 0
76 0 0 0
81 0 0 0
82 0 0 0
83 0 0 0
84 0 0 0
145 0 0 0
146 0 0 0
147 0 0 0
148 0 0 0
153 0 0 0
154 0 0 0
155 0 0 0
156 0 0 0
217 0 0 0
218 0 0 0
219 0 0 0
220 0 0 0
225 0 0 0
226 0 0 0
227 0 0 0
228 0 0 0
17 0 0 0
18 0 0 0
19 0 0 0
20 0 0 0
25 0 0 0
27 0 0 0
89 0 0 0
90 0 0 0
91 0 0 0
92 0 0 0
97 0 0 0
99 0 0 0
161 0 0 0
162 0 0 0
163 0 0 0
164 0 0 0
169 0 0 0
171 0 0 0
233 0 0 0
234 0 0 0
235 0 0 0
236 0 0 0
241 0 0 0
243 0 0 0
26 0 0 0
28 0 0 0
33 0 0 0
34 0 0 0
35 0 0 0
36 0 0 0
98 0 0 0
100 0 0 0
105 0 0 0
106 0 0 0
107 0 0 0
108 0 0 0
170 0 0 0
172 0 0 0
177 0 0 0
178 0 0 0
179 0 0 0
180 0 0 0
242 0 0 0
244 0 0 0
249 0 0 0
250 0 0 0
251 0 0 0
252 0 0 0
41 0 0 0
42 0 0 0
43 0 0 0
44 0 0 0
113 0 0 0
114 0 0 0
115 0 0 0
116 0 0 0
185 0 0 0
186 0 0 0
187 0 0 0
188 0 0 0
257 0 0 0
258 0 0 0
259 0 0 0
260 0 0 0
49 0 0 0
50 0 0 0
51 0 0 0
52 0 0 0
57 0 0 0
59 0 0 0
121 0 0 0
122 0 0 0
123 0 0 0
124 0 0 0
129 0 0 0
131 0 0 0
193 0 0 0
194 0 0 0
195 0 0 0
196 0 0 0
201 0 0 0
203 0 0 0
265 0 0 0
266 0 0 0
267 0 0 0
268 0 0 0
273 0 0 0
275 0 0 0
58 0 0 0
60 0 0 0
65 0 0 0
66 0 0 0
67 0 0 0
68 0 0 0
130 0 0 0
132 0 0 0
137 0 0 0
138 0 0 0
139 0 0 0
140 0 0 0
202 0 0 0
204 0 0 0
209 0 0 0
210 0 0 0
211 0 0 0
212 0 0 0
274 0 0 0
276 0 0 0
281 0 0 0
282 0 0 0
283 0 0 0
284 0 0 0
5 0 0 0
6 0 0 0
7 0 0 0
8 0 0 0
13 0 0 0
14 0 0 0
15 0 0 0
16 0 0 0
77 0 0 0
78 0 0 0
79 0 0 0
80 0 0 0
85 0 0 0
86 0 0 0
87 0 0 0
88 0 0 0
149 0 0 0
150 0 0 0
151 0 0 0
152 0 0 0
157 0 0 0
158 0 0 0
159 0 0 0
160 0 0 0
221 0 0 0
222 0 0 0
223 0 0 0
224 0 0 0
229 0 0 0
230 0 0 0
231 0 0 0
232 0 0 0
21 0 0 0
22 0 0 0
23 0 0 0
24 0 0 0
29 0 0 0
31 0 0 0
93 0 0 0
94 0 0 0
95 0 0 0
96 0 0 0
101 0 0 0
103 0 0 0
165 0 0 0
166 0 0 0
167 0 0 0
168 0 0 0
173 0 0 0
175 0 0 0
237 0 0 0
238 0 0 0
239 0 0 0
240 0 0 0
245 0 0 0
247 0 0 0
30 0 0 0
32 0 0 0
37 0 0 0
38 0 0 0
39 0 0 0
40 0 0 0
102 0 0 0
104 0 0 0
109 0 0 0
110 0 0 0
111 0 0 0
112 0 0 0
174 0 0 0
176 0 0 0
181 0 0 0
182 0 0 0
183 0 0 0
184 0 0 0
246 0 0 0
248 0 0 0
253 0 0 0
254 0 0 0
255 0 0 0
256 0 0 0
45 0 0 0
46 0 0 0
47 0 0 0
48 0 0 0
117 0 0 0
118 0 0 0
119 0 0 0
120 0 0 0
189 0 0 0
190 0 0 0
191 0 0 0
192 0 0 0
261 0 0 0
262 0 0 0
263 0 0 0
264 0 0 0
53 0 0 0
54 0 0 0
55 0 0 0
56 0 0 0
61 0 0 0
63 0 0 0
125 0 0 0
126 0 0 0
127 0 0 0
128 0 0 0
133 0 0 0
135 0 0 0
197 0 0 0
198 0 0 0
199 0 0 0
200 0 0 0
205 0 0 0
207 0 0 0
269 0 0 0
270 0 0 0
271 0 0 0
272 0 0 0
277 0 0 0
279 0 0 0
62 0 0 0
64 0 0 0
69 0 0 0
70 0 0 0
71 0 0 0
72 0 0 0
134 0 0 0
136 0 0 0
141 0 0 0
142 0 0 0
143 0 0 0
144 0 0 0
206 0 0 0
208 0 0 0
213 0 0 0
214 0 0 0
215 0 0 0
216 0 0 0
278 0 0 0
280 0 0 0
285 0 0 0
286 0 0 0
287 0 0 0
288 0 0 0
