 # File generated with Atomsk by user on 2025-06-01 15:58:05
  
         256  atoms
           2  atom types
 
      0.000000000000      14.065209620000  xlo xhi
      0.000000000000      25.164012690000  ylo yhi
      0.000000000000       8.120552660000  zlo zhi
 
Masses
 
            1   1.00800000              # H
            2   4.00260200              # He
 
Atoms # atomic
 
         1    1       11.630877262625       3.217544718318       3.977814716315
         2    1        1.076727381391      21.586469888427       6.014516399208
         3    1        6.959014086095       9.657434401245       4.004706900914
         4    1        3.409947056590      24.968465186677       6.018819642473
         5    1        5.785234929849       6.379933100006       1.967940659628
         6    1       12.775151406696      20.842852909863       6.018381863479
         7    1       12.794040842563       3.956175965058       6.021759444947
         8    1        5.764516735426      23.355935750881       1.957580620955
         9    1       12.782000601172      13.633741536744       1.967791485075
        10    1        9.271907845567      20.839114605555       3.983288537246
        11    1       10.452361787691       2.343884726503       6.028276756895
        12    1        3.431619434832       4.772679310422       1.968814837122
        13    1        2.231707400416      23.319436872092       8.061255166394
        14    1        1.057837382915       0.882609793183       6.031986631378
        15    1       10.439401259635      20.038465797883       6.023966611160
        16    1        8.109115727815       3.202888874678       6.027256896687
        17    1        3.400807342726      22.460067222931       1.978711111032
        18    1       11.617012904198      21.589855621035       3.995117746306
        19    1        1.082427729546       5.576525132846       1.963660072704
        20    1        2.255732325620       1.447644730203       4.014404140079
        21    1        9.274888966746       3.965174251251       4.007438898446
        22    1        4.573483505235      23.917418863688       8.061385988497
        23    1        6.917836637759      20.030954628289       3.991878620261
        24    1        9.220809642278      13.686646188385       8.035113483271
        25    1        6.930309524998       2.323694650918       4.010853915662
        26    1       13.958898717652      22.469825850631       8.045071310970
        27    1        8.098971336029      21.603884394275       6.036138669953
        28    1        2.239065896133       6.365675080569       8.054914720082
        29    1       13.950212044191      24.979561746901       3.992627010394
        30    1        1.048241393652      23.892818409533       1.955998087653
        31    1        4.592826544112       5.594660943702       8.056523482770
        32    1       13.955899733657       4.772027873289       8.044145324350
        33    1       11.607959972679       0.912363562609       4.014394639032
        34    1       10.412673845054      12.266500287730       2.080650276300
        35    1       11.625067065183       5.609763096369       8.054303404878
        36    1       12.802098379198       1.473576403598       6.019912506450
        37    1       10.444634783482      24.996639096737       6.037367147160
        38    1       12.805351943487       6.369278124648       1.970277105039
        39    1       11.609425145565      14.231352557271       8.117513624373
        40    1        6.952366446072      12.179523236299       8.002004609582
        41    1        8.110487929666      14.265335943895       1.972476313111
        42    1       12.836250677285      16.037042799812       5.979026254657
        43    1        9.263919791068      16.012920729261       3.991730582586
        44    1       10.401027007576      15.131692629263       5.987914361954
        45    1       11.601229769875      16.775433362909       3.987323071424
        46    1        6.927057085926      15.176058481666       4.003403633418
        47    1        8.108040020584      16.783230468648       6.035594755336
        48    1        8.103791483366      10.537482455200       1.983571586621
        49    1        9.251034793187      11.126158592766       8.086695883411
        50    1        6.914761420328       9.669368630055       8.109811929819
        51    1        4.621373012253      10.511694744439       3.955839039117
        52    1        5.771944713279      11.122774849279       6.045327400110
        53    1        3.418533163802       9.588785856768       6.063294447692
        54    1        1.164665181717      10.535623870252       6.075205187101
        55    1        4.583388647805      21.608692099769       8.068630089909
        56    1       13.964547305835      20.032958419072       8.047038839674
        57    1        1.056612443810      21.586834146213       1.962799781355
        58    1       12.783879291221      20.829805270564       1.957582894710
        59    1        9.270426638342      20.862384586391       8.051650745146
        60    1       10.431212072638      20.018234945318       1.965441559547
        61    1       11.606506051960      21.601032740660       8.055540246254
        62    1        5.774174189655      13.684737626771       6.024147131046
        63    1        2.226954344129      13.675222666395       4.006709997639
        64    1        3.390278267457      12.324624144275       6.068252288708
        65    1        4.565981403727      14.293140126086       4.029067909250
        66    1       13.921452488124      12.390008789805       3.955407431743
        67    1        1.056981655562      14.266588592854       6.035360396186
        68    1       10.465657911649       4.786051425087       1.964732310477
        69    1        8.129269063419       5.596809194398       1.969160204226
        70    1        9.287052560026       6.382063697253       8.048854838865
        71    1        6.936488934193       4.768091900081       8.075641781103
        72    1        4.597134014558       5.586426479979       3.987346945849
        73    1        5.757638144661       6.364352066454       6.025487022235
        74    1        3.423422793274       4.760376596943       6.034682005217
        75    1        1.080338623961       5.582402985446       6.020422801979
        76    1        2.265242235801       6.368512064417       3.981303630559
        77    1       13.994985685322       4.775136372156       3.991596837084
        78    1       11.632184201903       5.586389183960       4.004642342521
        79    1       12.790857604322       6.367799213173       6.029941307780
        80    1       10.449975765531       4.783176150659       6.027000043606
        81    1        8.102592142941       5.590674993827       6.030083417451
        82    1       12.808435740697      18.417996536914       6.023645849330
        83    1        9.270997404549      18.410448319942       3.996823955625
        84    1       10.450563972597      17.611583753820       6.017218431900
        85    1       11.616810646484      19.200216387020       3.989092052616
        86    1        6.921172342873      17.604697914146       3.999606300583
        87    1        8.096265752306      19.201705990021       6.019635676810
        88    1        5.745357247534      16.042108842397       1.983611783357
        89    1        2.232351727669      16.009017576548       8.058149623440
        90    1        3.397474731959      15.207210851805       2.043647841227
        91    1        4.571556008908      16.793284480820       8.055231584047
        92    1       13.965497973354      15.157613611132       8.070778544526
        93    1        1.047959667503      16.772017047565       1.960340147160
        94    1       12.797112262388      13.646455749633       6.073635159450
        95    1        9.267857346501      13.698878536709       3.999709106780
        96    1       10.438874095578      12.302649081219       5.977193202305
        97    1       11.606459636768      14.252779617486       4.016816918685
        98    1        6.927231072569      12.284041102762       4.018852010387
        99    1        8.081926974359      14.277989239953       6.034408829826
       100    1       12.771428908317      15.992209006690       1.966317848384
       101    1        9.271513457089      16.014441163637       8.060839394098
       102    1       10.426400786383      15.139520566378       1.983217043292
       103    1       11.630387371374      16.831346311446       8.083186261757
       104    1        6.945010622745      15.195567531943       8.057965611717
       105    1        8.094078612211      16.778752708603       1.969387579701
       106    1        4.576773779721       8.011219449696       3.988970487942
       107    1        5.689706417195       8.743157055579       6.020123397203
       108    1        3.418449194501       7.181806957583       6.035419107782
       109    1        1.089601549061       8.004513376833       6.023601267496
       110    1        2.264275955900       8.763470456667       3.975311880779
       111    1       13.985465507538       7.186815564300       4.001714720876
       112    1       11.633863447280       8.009451121113       3.998140378417
       113    1        5.740540897804      18.423768966100       1.967642229318
       114    1        2.250925258928      18.415199086846       8.053205749775
       115    1        3.391319936881      17.605695209695       1.980135537174
       116    1        4.572873497093      19.210001867855       8.069624207965
       117    1       13.977799827643      17.613593511966       8.056076527551
       118    1        1.063417614180      19.206318264375       1.964293232195
       119    1        2.244360603642       3.952166145731       8.064109215832
       120    1       13.966959911241       2.329760724094       8.068561877266
       121    1       11.629189718775       3.209455211790       8.058433193139
       122    1       12.801934519506       3.956410929978       1.968866971070
       123    1       10.462057921247       2.332371196787       1.958851649858
       124    1        8.122515793672       3.208139656878       1.966794037592
       125    1        9.297242101135       3.958866499871       8.056910427104
       126    1       13.963470754691       7.186041796225       8.059205457697
       127    1       11.626154024583       8.060506387491       8.056850578631
       128    1       12.837881678992       8.730394606506       2.007993905129
       129    1       10.457918530056       7.214297260246       1.961903109931
       130    1        8.121976955492       8.031894373528       1.973376557578
       131    1        9.218351606245       8.767717975954       8.049098130623
       132    1        6.934186178074       7.178706166561       8.064659058452
       133    1        5.752166637467      18.429826585512       6.040908114147
       134    1        2.230290049243      18.396653019781       4.002536926833
       135    1        3.397818626334      17.593728906307       6.026417799980
       136    1        4.582259774081      19.215574141739       4.013498860868
       137    1       13.946094172770      17.606217851241       3.974532876163
       138    1        1.073786205408      19.206056943601       6.016448116274
       139    1        2.215835795925      23.336208145932       4.004391742266
       140    1        3.405626364846      22.456368701043       6.018140358243
       141    1        4.577589421227      23.901967620282       3.996477126821
       142    1       13.957838200847      22.459328015833       3.993168326434
       143    1        1.058017558251      23.887563649091       6.048239430294
       144    1       12.776089696829      23.347136874070       6.016990569192
       145    1        9.278891784752      23.340725439758       4.003737063310
       146    1       12.778994021964      18.410911287858       1.954063203571
       147    1        9.285940001945      18.428101520311       8.063760194478
       148    1       10.443736157240      17.593376085967       1.963434970984
       149    1       11.617767924651      19.226444439447       8.048992807055
       150    1        6.937952137950      17.617145833459       8.057579966671
       151    1        8.107597388437      19.219481769973       1.970965403083
       152    1        3.437830490749       9.643723887367       1.972380896617
       153    1        1.094441387691      10.557688692393       1.952448350469
       154    1        2.297805446504      11.113570191782       8.108333420796
       155    1       13.993274652572       9.645927833452       8.081486792496
       156    1       11.722778217065      11.324294191170       8.017663552482
       157    1       12.839081722677      11.072696738601       2.031657439197
       158    1       10.447387345005       9.673317283911       1.945132138550
       159    1        8.110833793170       0.898923817829       6.045176357831
       160    1        9.274785306151       1.454175263136       4.000623562215
       161    1        6.939146555551      24.977497536567       4.006002941119
       162    1        4.603703733320       3.201606388904       8.068442342731
       163    1        5.759295448311       3.956795327614       1.977751830146
       164    1        3.418738515862       2.324412972245       1.977215467643
       165    1        1.074861068727       3.190862649020       1.957023713454
       166    1       12.796014894733       1.441792984817       1.969021342776
       167    1       10.442632460241      25.007563597992       1.981290523379
       168    1        8.096537070200       0.910650183494       1.979660403638
       169    1        9.278640861412       1.456335448559       8.081283859885
       170    1        6.937718936774      24.980692313558       8.054253869507
       171    1        4.591949718945       0.910111628979       4.018430797321
       172    1        5.742404960035       1.435417106043       6.045955118831
       173    1        5.754054188598      16.026623286654       6.025732912569
       174    1        2.220342007783      16.014124644755       4.001885171276
       175    1        3.397925240623      15.164994990579       6.026456047784
       176    1        4.574435157317      16.788245788648       4.004217475206
       177    1        2.241417599181      11.143323463927       3.929548831086
       178    1       13.953470953260      15.172144140148       3.985423836568
       179    1       13.972849155161       9.612855712893       3.976369907585
       180    1        1.078295370960      16.784552736843       6.017056670491
       181    1       11.559834732747      10.510241691537       3.959112352689
       182    1       12.796066654705      11.116759001409       5.865958602818
       183    1       10.423369311753       9.700944434331       6.021176632883
       184    1        8.136440210544      10.683722383597       6.031081595784
       185    1        9.280828142160      11.152092006642       3.976038183009
       186    1       12.829373633693       8.735585217795       5.972567410688
       187    1       10.443237686211       7.212049553498       6.021358939290
       188    1        8.107589371267       7.992862349127       6.015956741633
       189    1        9.278256740538       8.797889460793       3.999432195934
       190    1        6.940985581708       7.199385565915       4.004482854867
       191    1        4.602377806009      10.493098452068       8.074337214318
       192    1        5.778046341864      11.131645085807       1.965135495917
       193    1        5.744321485497      13.695253860939       2.040503806854
       194    1        2.207729171708      13.658432744546       8.030499141633
       195    1        3.436956900579      12.174361218624       2.055808856069
       196    1        4.573530061078      14.318580735230       8.018679433620
       197    1       14.034897968052      12.377302782041       8.115056751165
       198    1        1.055837028803      14.246150374423       1.965242362390
       199    1        9.297078663399       6.388809303896       4.008534604616
       200    1        6.942590844082       4.768965870127       3.998712552557
       201    1        4.600982677867       8.005240897844       8.069238968947
       202    1        5.776414636896       8.796704690589       1.984406054612
       203    1        3.429899681652       7.188124654568       1.961132225867
       204    1        1.082319568084       7.997254576968       1.962622753307
       205    1        2.248511950262       8.767553873471       8.070180141000
       206    1        6.933828921750       2.319720884410       8.074350450819
       207    1        4.594340382624       3.209464162834       4.011853880516
       208    1        5.771856665066       3.953927263750       6.049292584768
       209    1        3.426008119455       2.326209894442       6.036804230449
       210    1        1.081883405934       3.179405063333       6.024229960683
       211    1        2.253355164542       3.953160954879       4.005300432108
       212    1       10.437962810647      22.480246606990       6.034886237116
       213    1       13.964454616104       2.329442216092       3.985067750334
       214    1       11.622113933771      23.899369330956       3.997829767278
       215    1        6.927297601010      22.469423550906       3.993871809911
       216    1        8.100270680094      23.900166222563       6.027167976635
       217    1        6.926866783640      20.030050075508       8.062716703462
       218    1        5.743011592526      20.848477646814       1.972655614913
       219    1        8.100162096675      21.613224312002       1.958446921513
       220    1        2.242991355486      20.835459844330       8.047373974882
       221    1        5.759520913621      20.853639664488       6.035030864159
       222    1        3.400138963965      20.019181021000       1.964267652454
       223    1        2.235653676279      20.813561113793       3.997328241945
       224    1        3.415455695937      20.021740025186       6.017609436510
       225    1        4.575138277146      21.608764702686       3.997607182929
       226    1       13.950133279017      20.016178194188       4.002511022270
       227    1        4.593113052432       0.910667836943       8.072870642508
       228    1        5.752460178392       1.422503732412       1.988217192387
       229    1        3.394482639917      24.967230937087       1.985170036207
       230    1        1.069909552332       0.885056909312       1.980914216969
       231    1        2.245764874171       1.436182171713       8.062433620996
       232    1       13.943125850932      24.997755988187       8.066013891458
       233    1       11.607715519335       0.915017298683       8.049571315227
       234    1       12.783040582771      23.317976359987       1.975268646348
       235    1        9.283640762128      23.386751710928       8.076086706183
       236    1       10.450743022716      22.477436476275       1.967506534883
       237    1       11.635301333659      23.910247087868       8.073659229376
       238    1        6.935354434385      22.472930868536       8.073166311830
       239    1        8.098209564276      23.914094047911       1.995625734989
       240    1        5.744090534756      23.355448167592       6.033969020693
       241    2       11.702351031830      15.497640173474       7.056962544507
       242    2        8.453538532950      12.345949013398       5.147775463868
       243    2        3.630338483080      12.237855204630       7.771714993574
       244    2       12.296725270601      12.290927936997       3.270553071048
       245    2       14.021551771948      11.051833842833       7.085327147715
       246    2       10.521764454780      12.414641815818       0.381446070454
       247    2        7.222136744628       9.354108862114       6.478271173340
       248    2       10.555850646381       9.863893725176       0.134336191311
       249    2        6.074082716124      13.840558405179       0.409866218242
       250    2        3.359294720445      13.891671853346       1.085753133841
       251    2        0.625385212941      11.031173091488       4.553862035535
       252    2        3.451298210264      10.950330986548       5.066874051965
       253    2       11.975105545910       9.869508267882       6.822190545842
       254    2        5.233698115453      12.368071768689       4.733034153042
       255    2       12.417952468403       9.915966426953       0.787635870891
       256    2        7.133299192843      12.295306986912       2.221947648967
