LAMMPS data file via write_data, version 29 Aug 2024, timestep = 7, units = metal

288 atoms
1 atom types

0 11.317147 xlo xhi
0 25.763582 ylo yhi
0 11.317147 zlo zhi

Masses

1 55.8

Atoms # atomic

1 1 0 0 0 0 0 0
2 1 1.414643375 1.414643557616 1.414643375 0 0 0
3 1 0 0 2.82928675 0 0 0
4 1 1.414643375 1.414643557616 4.243930125 0 0 0
9 1 0 2.82928660596 0 0 0 0
10 1 1.4146433750000011 4.258654733686443 1.4146433750000007 0 0 0
11 1 0 2.82928660596 2.82928675 0 0 0
12 1 1.4146433750000003 4.25865473368644 4.2439301249999986 0 0 0
73 1 2.82928675 0 0 0 0 0
74 1 4.243930125 1.414643557616 1.414643375 0 0 0
75 1 2.82928675 0 2.82928675 0 0 0
76 1 4.243930125 1.414643557616 4.243930125 0 0 0
81 1 2.82928675 2.82928660596 0 0 0 0
82 1 4.243930125000006 4.25865473368644 1.4146433749999996 0 0 0
83 1 2.82928675 2.82928660596 2.82928675 0 0 0
84 1 4.243930124999998 4.258654733686443 4.243930124999997 0 0 0
145 1 5.6585735 0 0 0 0 0
146 1 7.073216875 1.414643557616 1.414643375 0 0 0
147 1 5.6585735 0 2.82928675 0 0 0
148 1 7.073216875 1.414643557616 4.243930125 0 0 0
153 1 5.6585735 2.82928660596 0 0 0 0
154 1 7.073216874999997 4.258654733686441 1.4146433750000003 0 0 0
155 1 5.6585735 2.82928660596 2.82928675 0 0 0
156 1 7.073216875000001 4.258654733686448 4.243930124999999 0 0 0
217 1 8.48786025 0 0 0 0 0
218 1 9.902503625 1.414643557616 1.414643375 0 0 0
219 1 8.48786025 0 2.82928675 0 0 0
220 1 9.902503625 1.414643557616 4.243930125 0 0 0
225 1 8.48786025 2.82928660596 0 0 0 0
226 1 9.902503624999998 4.258654733686444 1.414643374999998 0 0 0
227 1 8.48786025 2.82928660596 2.82928675 0 0 0
228 1 9.902503624999998 4.258654733686444 4.243930125000001 0 0 0
17 1 11.317146999999999 5.689827656868671 5.735624147666704e-15 -1 0 0
18 1 1.4146433750000025 7.12544858656121 1.4146433750000023 0 0 0
19 1 11.317146999999997 5.689827656868675 2.8292867499999974 -1 0 0
20 1 1.4146433750000027 7.12544858656121 4.243930124999996 0 0 0
25 1 11.317146999999999 8.560360299415061 2.762353636420964e-15 -1 0 0
27 1 1.627635359542694e-15 8.560360299415063 2.8292867499999956 0 0 0
89 1 2.8292867500000027 5.689827656868671 8.3422085788272e-15 0 0 0
90 1 4.243930124999998 7.125448586561211 1.4146433749999985 0 0 0
91 1 2.829286749999999 5.689827656868675 2.829286749999998 0 0 0
92 1 4.243930125000002 7.125448586561217 4.243930124999998 0 0 0
97 1 2.829286750000001 8.560360299415063 11.317146999999999 0 0 -1
99 1 2.829286750000001 8.560360299415063 2.8292867500000027 0 0 0
161 1 5.6585735 5.689827656868672 6.2314813073678195e-15 0 0 0
162 1 7.073216875000007 7.1254485865612125 1.414643374999998 0 0 0
163 1 5.658573499999999 5.689827656868671 2.8292867499999983 0 0 0
164 1 7.073216875000001 7.125448586561212 4.243930124999998 0 0 0
169 1 5.658573500000001 8.560360299415063 11.317146999999997 0 0 -1
171 1 5.658573499999998 8.560360299415063 2.8292867500000027 0 0 0
233 1 8.48786025 5.689827656868674 4.0733962971105715e-15 0 0 0
234 1 9.902503624999998 7.125448586561209 1.4146433750000005 0 0 0
235 1 8.48786025 5.689827656868679 2.829286749999998 0 0 0
236 1 9.902503624999998 7.125448586561211 4.243930124999994 0 0 0
241 1 8.487860249999995 8.560360299415056 2.480344024902405e-15 0 0 0
243 1 8.487860249999997 8.560360299415057 2.8292867500000014 0 0 0
26 1 1.4146433750000023 9.99703741967225 1.414643375000003 0 0 0
28 1 1.4146433750000023 9.997037419672253 4.243930124999996 0 0 0
33 1 0 11.43386862786464 11.317146999999995 0 0 -1
34 1 1.4146433749999998 12.870698562026572 1.4146433750000011 0 0 0
35 1 0 11.433868627864639 2.8292867500000014 0 0 0
36 1 1.4146433750000034 12.870698562026577 4.243930125 0 0 0
98 1 4.2439301249999986 9.997037419672248 1.4146433750000045 0 0 0
100 1 4.243930124999999 9.997037419672246 4.243930124999994 0 0 0
105 1 2.8292867499999983 11.433868627864639 11.317146999999997 0 0 -1
106 1 4.243930124999999 12.87069856202657 1.4146433750000025 0 0 0
107 1 2.8292867500000014 11.433868627864639 2.82928675 0 0 0
108 1 4.243930124999997 12.870698562026577 4.243930125 0 0 0
170 1 7.0732168750000035 9.997037419672248 1.4146433750000014 0 0 0
172 1 7.0732168750000035 9.997037419672248 4.243930124999998 0 0 0
177 1 5.658573500000005 11.433868627864644 0 0 0 0
178 1 7.073216875000004 12.870698562026572 1.414643375000002 0 0 0
179 1 5.6585734999999975 11.43386862786464 2.8292867499999987 0 0 0
180 1 7.073216875000004 12.870698562026577 4.243930124999999 0 0 0
242 1 9.902503625 9.997037419672253 1.4146433750000011 0 0 0
244 1 9.902503625000001 9.997037419672255 4.243930124999999 0 0 0
249 1 8.487860249999995 11.433868627864644 3.059334672690582e-15 0 0 0
250 1 9.902503624999998 12.870698562026574 1.4146433750000023 0 0 0
251 1 8.487860249999999 11.433868627864644 2.8292867500000023 0 0 0
252 1 9.902503624999998 12.870698562026572 4.243930124999993 0 0 0
41 1 0 14.309390905927618 11.317146999999999 0 0 -1
42 1 1.4146433749999998 15.746140040458021 1.4146433750000038 0 0 0
43 1 11.317146999999999 14.30939090592762 2.8292867500000014 -1 0 0
44 1 1.414643375000003 15.746140040458016 4.243930125 0 0 0
113 1 2.8292867499999965 14.309390905927616 11.317146999999997 0 0 -1
114 1 4.2439301249999986 15.746140040458025 1.4146433750000027 0 0 0
115 1 2.8292867499999983 14.309390905927621 2.8292867500000063 0 0 0
116 1 4.243930124999999 15.746140040458021 4.2439301249999986 0 0 0
185 1 5.658573500000002 14.309390905927614 1.1124448739084976e-15 0 0 0
186 1 7.073216874999998 15.746140040458018 1.4146433750000016 0 0 0
187 1 5.658573499999999 14.309390905927614 2.8292867500000014 0 0 0
188 1 7.073216874999998 15.746140040458014 4.243930124999997 0 0 0
257 1 8.487860249999999 14.309390905927613 11.317146999999999 0 0 -1
258 1 9.902503625000005 15.746140040458018 1.414643375000004 0 0 0
259 1 8.487860249999999 14.309390905927613 2.8292867500000014 0 0 0
260 1 9.902503625000005 15.74614004045802 4.243930125 0 0 0
49 1 9.296774258358891e-17 17.1834987779213 2.97449061531796e-15 0 0 0
50 1 1.414643375000001 18.621148108339302 1.4146433749999963 0 0 0
51 1 3.203069183841586e-15 17.183498777921294 2.8292867500000005 0 0 0
52 1 1.4146433749999971 18.621148108339302 4.243930125000005 0 0 0
57 1 11.317146999999999 20.057569247469452 1.8262311254116492e-15 -1 0 0
59 1 0 20.05756924746945 2.8292867500000014 0 0 0
121 1 2.8292867500000014 17.183498777921297 1.9637635364153623e-15 0 0 0
122 1 4.243930125000004 18.6211481083393 1.414643374999998 0 0 0
123 1 2.8292867500000027 17.183498777921294 2.829286750000002 0 0 0
124 1 4.243930125000004 18.621148108339302 4.243930124999999 0 0 0
129 1 2.8292867500000045 20.057569247469452 1.668805717927225e-15 0 0 0
131 1 2.829286750000003 20.057569247469452 2.829286749999998 0 0 0
193 1 5.658573499999998 17.183498777921297 3.59783542256228e-15 0 0 0
194 1 7.073216874999999 18.621148108339302 1.4146433750000036 0 0 0
195 1 5.658573499999999 17.1834987779213 2.829286749999999 0 0 0
196 1 7.0732168749999955 18.621148108339302 4.243930124999998 0 0 0
201 1 5.658573499999996 20.05756924746945 1.485856723621938e-17 0 0 0
203 1 5.658573500000003 20.057569247469445 2.8292867500000036 0 0 0
265 1 8.487860250000002 17.1834987779213 1.0110532188756361e-15 0 0 0
266 1 9.902503625 18.6211481083393 1.4146433749999965 0 0 0
267 1 8.487860249999999 17.183498777921297 2.8292867500000014 0 0 0
268 1 9.902503625 18.621148108339302 4.243930125000002 0 0 0
273 1 8.487860250000002 20.057569247469445 3.76129555214361e-15 0 0 0
275 1 8.487860249999995 20.05756924746945 2.829286749999997 0 0 0
58 1 1.4146433750000005 21.48669432424802 1.4146433750000003 0 0 0
60 1 1.414643375000003 21.48669432424802 4.243930125000004 0 0 0
65 1 0 22.93429539404 0 0 0 0
66 1 1.414643375 24.348937423841 1.414643375 0 0 0
67 1 0 22.93429539404 2.82928675 0 0 0
68 1 1.414643375 24.348937423841 4.243930125 0 0 0
130 1 4.243930124999996 21.486694324248024 1.4146433749999987 0 0 0
132 1 4.243930125000001 21.48669432424802 4.2439301249999986 0 0 0
137 1 2.82928675 22.93429539404 0 0 0 0
138 1 4.243930125 24.348937423841 1.414643375 0 0 0
139 1 2.82928675 22.93429539404 2.82928675 0 0 0
140 1 4.243930125 24.348937423841 4.243930125 0 0 0
202 1 7.073216875000003 21.486694324248024 1.4146433750000014 0 0 0
204 1 7.073216874999994 21.486694324248027 4.243930125 0 0 0
209 1 5.6585735 22.93429539404 0 0 0 0
210 1 7.073216875 24.348937423841 1.414643375 0 0 0
211 1 5.6585735 22.93429539404 2.82928675 0 0 0
212 1 7.073216875 24.348937423841 4.243930125 0 0 0
274 1 9.902503625000001 21.486694324248024 1.4146433749999985 0 0 0
276 1 9.902503625 21.486694324248027 4.243930125000003 0 0 0
281 1 8.48786025 22.93429539404 0 0 0 0
282 1 9.902503625 24.348937423841 1.414643375 0 0 0
283 1 8.48786025 22.93429539404 2.82928675 0 0 0
284 1 9.902503625 24.348937423841 4.243930125 0 0 0
5 1 0 0 5.6585735 0 0 0
6 1 1.414643375 1.414643557616 7.073216875 0 0 0
7 1 0 0 8.48786025 0 0 0
8 1 1.414643375 1.414643557616 9.902503625 0 0 0
13 1 0 2.82928660596 5.6585735 0 0 0
14 1 1.4146433750000005 4.258654733686444 7.073216875000001 0 0 0
15 1 0 2.82928660596 8.48786025 0 0 0
16 1 1.4146433749999978 4.258654733686443 9.902503625 0 0 0
77 1 2.82928675 0 5.6585735 0 0 0
78 1 4.243930125 1.414643557616 7.073216875 0 0 0
79 1 2.82928675 0 8.48786025 0 0 0
80 1 4.243930125 1.414643557616 9.902503625 0 0 0
85 1 2.82928675 2.82928660596 5.6585735 0 0 0
86 1 4.243930125 4.258654733686442 7.073216875 0 0 0
87 1 2.82928675 2.82928660596 8.48786025 0 0 0
88 1 4.243930125000001 4.25865473368644 9.902503625000003 0 0 0
149 1 5.6585735 0 5.6585735 0 0 0
150 1 7.073216875 1.414643557616 7.073216875 0 0 0
151 1 5.6585735 0 8.48786025 0 0 0
152 1 7.073216875 1.414643557616 9.902503625 0 0 0
157 1 5.6585735 2.82928660596 5.6585735 0 0 0
158 1 7.073216875 4.258654733686444 7.073216874999997 0 0 0
159 1 5.6585735 2.82928660596 8.48786025 0 0 0
160 1 7.073216875000001 4.258654733686446 9.902503625000001 0 0 0
221 1 8.48786025 0 5.6585735 0 0 0
222 1 9.902503625 1.414643557616 7.073216875 0 0 0
223 1 8.48786025 0 8.48786025 0 0 0
224 1 9.902503625 1.414643557616 9.902503625 0 0 0
229 1 8.48786025 2.82928660596 5.6585735 0 0 0
230 1 9.902503625 4.258654733686442 7.073216875000003 0 0 0
231 1 8.48786025 2.82928660596 8.48786025 0 0 0
232 1 9.902503625 4.258654733686442 9.902503625000001 0 0 0
21 1 2.9578855954433263e-16 5.689827656868672 5.658573500000001 0 0 0
22 1 1.4146433749999991 7.125448586561206 7.0732168750000035 0 0 0
23 1 11.317146999999999 5.689827656868672 8.487860249999995 -1 0 0
24 1 1.4146433749999954 7.125448586561216 9.902503624999998 0 0 0
29 1 11.317146999999997 8.560360299415064 5.658573500000003 -1 0 0
31 1 11.317146999999995 8.560360299415061 8.487860249999999 -1 0 0
93 1 2.829286750000001 5.689827656868672 5.658573499999999 0 0 0
94 1 4.243930125 7.125448586561217 7.073216875 0 0 0
95 1 2.8292867499999996 5.689827656868673 8.487860249999997 0 0 0
96 1 4.243930125000002 7.125448586561217 9.902503625000003 0 0 0
101 1 2.8292867500000045 8.560360299415063 5.658573499999998 0 0 0
103 1 2.8292867500000045 8.560360299415063 8.487860250000002 0 0 0
165 1 5.6585735 5.689827656868673 5.658573499999998 0 0 0
166 1 7.073216875000007 7.1254485865612125 7.073216875 0 0 0
167 1 5.658573500000001 5.68982765686867 8.48786025 0 0 0
168 1 7.073216875000004 7.125448586561215 9.902503625000005 0 0 0
173 1 5.6585734999999975 8.56036029941506 5.6585734999999975 0 0 0
175 1 5.658573499999999 8.560360299415066 8.48786025 0 0 0
237 1 8.487860249999995 5.689827656868674 5.6585734999999975 0 0 0
238 1 9.902503625 7.125448586561209 7.073216875000005 0 0 0
239 1 8.48786025 5.689827656868677 8.487860249999995 0 0 0
240 1 9.902503625000001 7.125448586561214 9.902503625000003 0 0 0
245 1 8.487860249999997 8.560360299415061 5.658573500000002 0 0 0
247 1 8.48786025 8.560360299415063 8.487860249999995 0 0 0
30 1 1.4146433749999983 9.997037419672253 7.073216874999997 0 0 0
32 1 1.4146433750000014 9.997037419672253 9.902503625000001 0 0 0
37 1 0 11.43386862786464 5.658573500000005 0 0 0
38 1 1.4146433749999998 12.870698562026572 7.073216875 0 0 0
39 1 11.317146999999997 11.433868627864642 8.487860249999999 -1 0 0
40 1 1.4146433750000005 12.870698562026572 9.902503625 0 0 0
102 1 4.243930125 9.99703741967225 7.073216874999996 0 0 0
104 1 4.243930124999998 9.997037419672248 9.902503625000001 0 0 0
109 1 2.8292867500000023 11.433868627864642 5.658573500000002 0 0 0
110 1 4.243930124999998 12.870698562026575 7.073216874999999 0 0 0
111 1 2.82928675 11.43386862786464 8.487860250000002 0 0 0
112 1 4.243930125 12.870698562026575 9.902503625 0 0 0
174 1 7.073216875000002 9.99703741967225 7.073216875000002 0 0 0
176 1 7.073216874999996 9.99703741967225 9.902503625000001 0 0 0
181 1 5.658573499999998 11.43386862786464 5.658573500000002 0 0 0
182 1 7.0732168750000035 12.870698562026577 7.073216875000003 0 0 0
183 1 5.658573500000002 11.43386862786464 8.487860249999999 0 0 0
184 1 7.073216875000001 12.870698562026574 9.902503625000003 0 0 0
246 1 9.902503625000003 9.997037419672253 7.073216874999997 0 0 0
248 1 9.902503625000003 9.99703741967225 9.902503625 0 0 0
253 1 8.487860250000002 11.433868627864642 5.658573500000005 0 0 0
254 1 9.902503625 12.87069856202657 7.073216875000003 0 0 0
255 1 8.487860249999999 11.43386862786464 8.48786025 0 0 0
256 1 9.902503625000001 12.870698562026577 9.902503624999996 0 0 0
45 1 4.756874260475643e-15 14.309390905927616 5.658573500000001 0 0 0
46 1 1.4146433749999991 15.746140040458016 7.073216875 0 0 0
47 1 0 14.309390905927616 8.487860250000002 0 0 0
48 1 1.4146433750000003 15.74614004045802 9.902503625 0 0 0
117 1 2.8292867499999996 14.30939090592762 5.658573499999999 0 0 0
118 1 4.2439301249999986 15.746140040458016 7.073216874999997 0 0 0
119 1 2.8292867499999996 14.309390905927616 8.487860249999997 0 0 0
120 1 4.243930124999999 15.746140040458018 9.902503625000001 0 0 0
189 1 5.6585735 14.309390905927616 5.658573499999999 0 0 0
190 1 7.073216874999999 15.746140040458016 7.073216874999998 0 0 0
191 1 5.658573500000003 14.309390905927618 8.48786025 0 0 0
192 1 7.073216875000003 15.746140040458013 9.902503624999998 0 0 0
261 1 8.48786025 14.309390905927614 5.658573499999999 0 0 0
262 1 9.902503625000005 15.746140040458016 7.073216875000003 0 0 0
263 1 8.487860249999997 14.309390905927616 8.48786025 0 0 0
264 1 9.902503625000001 15.746140040458018 9.902503625 0 0 0
53 1 1.047225555987292e-15 17.183498777921297 5.6585734999999975 0 0 0
54 1 1.4146433749999983 18.62114810833931 7.073216874999997 0 0 0
55 1 1.4730391364774463e-15 17.183498777921297 8.48786025 0 0 0
56 1 1.414643375000001 18.6211481083393 9.902503625000001 0 0 0
61 1 4.435758815296102e-15 20.05756924746945 5.658573500000001 0 0 0
63 1 11.317146999999999 20.05756924746945 8.487860249999999 -1 0 0
125 1 2.829286750000003 17.183498777921294 5.658573499999996 0 0 0
126 1 4.243930125000001 18.6211481083393 7.073216875000002 0 0 0
127 1 2.829286750000004 17.183498777921297 8.48786025 0 0 0
128 1 4.2439301249999986 18.621148108339302 9.902503625 0 0 0
133 1 2.82928675 20.057569247469452 5.6585735 0 0 0
135 1 2.829286750000007 20.05756924746945 8.487860249999999 0 0 0
197 1 5.658573499999997 17.1834987779213 5.6585735 0 0 0
198 1 7.073216874999997 18.6211481083393 7.073216874999998 0 0 0
199 1 5.658573499999999 17.1834987779213 8.487860249999997 0 0 0
200 1 7.073216874999998 18.6211481083393 9.902503624999998 0 0 0
205 1 5.658573500000003 20.05756924746945 5.6585734999999975 0 0 0
207 1 5.658573499999996 20.057569247469445 8.487860249999999 0 0 0
269 1 8.487860249999999 17.1834987779213 5.658573500000001 0 0 0
270 1 9.902503625 18.621148108339302 7.073216875000001 0 0 0
271 1 8.48786025 17.183498777921304 8.487860250000002 0 0 0
272 1 9.902503624999998 18.6211481083393 9.902503625 0 0 0
277 1 8.48786025 20.05756924746945 5.658573499999999 0 0 0
279 1 8.487860250000006 20.057569247469445 8.487860249999999 0 0 0
62 1 1.4146433749999945 21.48669432424802 7.0732168749999955 0 0 0
64 1 1.4146433749999963 21.486694324248024 9.902503625000005 0 0 0
69 1 0 22.93429539404 5.6585735 0 0 0
70 1 1.414643375 24.348937423841 7.073216875 0 0 0
71 1 0 22.93429539404 8.48786025 0 0 0
72 1 1.414643375 24.348937423841 9.902503625 0 0 0
134 1 4.243930125000001 21.486694324248024 7.073216875 0 0 0
136 1 4.243930125000004 21.48669432424802 9.902503625000003 0 0 0
141 1 2.82928675 22.93429539404 5.6585735 0 0 0
142 1 4.243930125 24.348937423841 7.073216875 0 0 0
143 1 2.82928675 22.93429539404 8.48786025 0 0 0
144 1 4.243930125 24.348937423841 9.902503625 0 0 0
206 1 7.073216875000001 21.486694324248027 7.073216874999997 0 0 0
208 1 7.073216874999996 21.486694324248027 9.902503625000001 0 0 0
213 1 5.6585735 22.93429539404 5.6585735 0 0 0
214 1 7.073216875 24.348937423841 7.073216875 0 0 0
215 1 5.6585735 22.93429539404 8.48786025 0 0 0
216 1 7.073216875 24.348937423841 9.902503625 0 0 0
278 1 9.902503625000001 21.486694324248024 7.073216875000002 0 0 0
280 1 9.902503625000001 21.48669432424802 9.902503625000001 0 0 0
285 1 8.48786025 22.93429539404 5.6585735 0 0 0
286 1 9.902503625 24.348937423841 7.073216875 0 0 0
287 1 8.48786025 22.93429539404 8.48786025 0 0 0
288 1 9.902503625 24.348937423841 9.902503625 0 0 0

Velocities

1 0 0 0
2 0 0 0
3 0 0 0
4 0 0 0
9 0 0 0
10 0 0 0
11 0 0 0
12 0 0 0
73 0 0 0
74 0 0 0
75 0 0 0
76 0 0 0
81 0 0 0
82 0 0 0
83 0 0 0
84 0 0 0
145 0 0 0
146 0 0 0
147 0 0 0
148 0 0 0
153 0 0 0
154 0 0 0
155 0 0 0
156 0 0 0
217 0 0 0
218 0 0 0
219 0 0 0
220 0 0 0
225 0 0 0
226 0 0 0
227 0 0 0
228 0 0 0
17 0 0 0
18 0 0 0
19 0 0 0
20 0 0 0
25 0 0 0
27 0 0 0
89 0 0 0
90 0 0 0
91 0 0 0
92 0 0 0
97 0 0 0
99 0 0 0
161 0 0 0
162 0 0 0
163 0 0 0
164 0 0 0
169 0 0 0
171 0 0 0
233 0 0 0
234 0 0 0
235 0 0 0
236 0 0 0
241 0 0 0
243 0 0 0
26 0 0 0
28 0 0 0
33 0 0 0
34 0 0 0
35 0 0 0
36 0 0 0
98 0 0 0
100 0 0 0
105 0 0 0
106 0 0 0
107 0 0 0
108 0 0 0
170 0 0 0
172 0 0 0
177 0 0 0
178 0 0 0
179 0 0 0
180 0 0 0
242 0 0 0
244 0 0 0
249 0 0 0
250 0 0 0
251 0 0 0
252 0 0 0
41 0 0 0
42 0 0 0
43 0 0 0
44 0 0 0
113 0 0 0
114 0 0 0
115 0 0 0
116 0 0 0
185 0 0 0
186 0 0 0
187 0 0 0
188 0 0 0
257 0 0 0
258 0 0 0
259 0 0 0
260 0 0 0
49 0 0 0
50 0 0 0
51 0 0 0
52 0 0 0
57 0 0 0
59 0 0 0
121 0 0 0
122 0 0 0
123 0 0 0
124 0 0 0
129 0 0 0
131 0 0 0
193 0 0 0
194 0 0 0
195 0 0 0
196 0 0 0
201 0 0 0
203 0 0 0
265 0 0 0
266 0 0 0
267 0 0 0
268 0 0 0
273 0 0 0
275 0 0 0
58 0 0 0
60 0 0 0
65 0 0 0
66 0 0 0
67 0 0 0
68 0 0 0
130 0 0 0
132 0 0 0
137 0 0 0
138 0 0 0
139 0 0 0
140 0 0 0
202 0 0 0
204 0 0 0
209 0 0 0
210 0 0 0
211 0 0 0
212 0 0 0
274 0 0 0
276 0 0 0
281 0 0 0
282 0 0 0
283 0 0 0
284 0 0 0
5 0 0 0
6 0 0 0
7 0 0 0
8 0 0 0
13 0 0 0
14 0 0 0
15 0 0 0
16 0 0 0
77 0 0 0
78 0 0 0
79 0 0 0
80 0 0 0
85 0 0 0
86 0 0 0
87 0 0 0
88 0 0 0
149 0 0 0
150 0 0 0
151 0 0 0
152 0 0 0
157 0 0 0
158 0 0 0
159 0 0 0
160 0 0 0
221 0 0 0
222 0 0 0
223 0 0 0
224 0 0 0
229 0 0 0
230 0 0 0
231 0 0 0
232 0 0 0
21 0 0 0
22 0 0 0
23 0 0 0
24 0 0 0
29 0 0 0
31 0 0 0
93 0 0 0
94 0 0 0
95 0 0 0
96 0 0 0
101 0 0 0
103 0 0 0
165 0 0 0
166 0 0 0
167 0 0 0
168 0 0 0
173 0 0 0
175 0 0 0
237 0 0 0
238 0 0 0
239 0 0 0
240 0 0 0
245 0 0 0
247 0 0 0
30 0 0 0
32 0 0 0
37 0 0 0
38 0 0 0
39 0 0 0
40 0 0 0
102 0 0 0
104 0 0 0
109 0 0 0
110 0 0 0
111 0 0 0
112 0 0 0
174 0 0 0
176 0 0 0
181 0 0 0
182 0 0 0
183 0 0 0
184 0 0 0
246 0 0 0
248 0 0 0
253 0 0 0
254 0 0 0
255 0 0 0
256 0 0 0
45 0 0 0
46 0 0 0
47 0 0 0
48 0 0 0
117 0 0 0
118 0 0 0
119 0 0 0
120 0 0 0
189 0 0 0
190 0 0 0
191 0 0 0
192 0 0 0
261 0 0 0
262 0 0 0
263 0 0 0
264 0 0 0
53 0 0 0
54 0 0 0
55 0 0 0
56 0 0 0
61 0 0 0
63 0 0 0
125 0 0 0
126 0 0 0
127 0 0 0
128 0 0 0
133 0 0 0
135 0 0 0
197 0 0 0
198 0 0 0
199 0 0 0
200 0 0 0
205 0 0 0
207 0 0 0
269 0 0 0
270 0 0 0
271 0 0 0
272 0 0 0
277 0 0 0
279 0 0 0
62 0 0 0
64 0 0 0
69 0 0 0
70 0 0 0
71 0 0 0
72 0 0 0
134 0 0 0
136 0 0 0
141 0 0 0
142 0 0 0
143 0 0 0
144 0 0 0
206 0 0 0
208 0 0 0
213 0 0 0
214 0 0 0
215 0 0 0
216 0 0 0
278 0 0 0
280 0 0 0
285 0 0 0
286 0 0 0
287 0 0 0
288 0 0 0
